    5    5    1    1
  0.4040059E+02  0.5867493E-09  0.5867493E-09  0.5867493E-09  0.5000000E-15
   1.0000000000000000E-004
  CAR 
 Name                                    
   34   20   36

  0.0000000E+00  0.0000000E+00  0.0000000E+00  0.5000000E-01
   1      -21.065513
   2      -19.980787
   3      -14.522345
   4      -13.947455
   5      -13.947455
   6      -13.180618
   7      -12.581212
   8      -12.581212
   9       -8.603201
  10       -8.319616
  11       -7.263069
  12       -6.779258
  13       -6.633521
  14       -6.499626
  15       -6.280376
  16       -5.491817
  17       -4.216977
  18       -4.128681
  19       -4.025624
  20       -2.921727
  21       -2.831166
  22       -2.762934
  23       -1.937947
  24       -1.889870
  25       -1.846200
  26       -1.777722
  27       -1.767726
  28       -1.573465
  29       -0.662330
  30       -0.580648
  31       -0.577854
  32       -0.504532
  33       -0.416405
  34       -0.288315
  35        3.515062
  36        4.114909

  0.5555556E-01  0.5555556E-01  0.5555556E-01  0.5000000E-01
   1      -21.065409
   2      -19.980675
   3      -14.512174
   4      -13.953463
   5      -13.953078
   6      -13.170069
   7      -12.587409
   8      -12.587003
   9       -8.602882
  10       -8.318079
  11       -7.262772
  12       -6.782259
  13       -6.736530
  14       -6.496508
  15       -6.280128
  16       -5.593197
  17       -4.170960
  18       -4.005063
  19       -3.984279
  20       -2.877555
  21       -2.723747
  22       -2.718852
  23       -1.939777
  24       -1.910264
  25       -1.835736
  26       -1.800386
  27       -1.789079
  28       -1.574120
  29       -0.688883
  30       -0.579532
  31       -0.567055
  32       -0.533045
  33       -0.450412
  34       -0.289749
  35        3.606137
  36        4.214440

  0.1111111E+00  0.1111111E+00  0.1111111E+00  0.5000000E-01
   1      -21.065146
   2      -19.980388
   3      -14.482366
   4      -13.970612
   5      -13.969139
   6      -13.139107
   7      -12.605103
   8      -12.603553
   9       -8.602352
  10       -8.314443
  11       -7.262505
  12       -7.012506
  13       -6.771287
  14       -6.489007
  15       -6.280043
  16       -5.849728
  17       -4.036041
  18       -3.862079
  19       -3.692292
  20       -2.748105
  21       -2.610865
  22       -2.434382
  23       -1.965696
  24       -1.963014
  25       -1.865717
  26       -1.826063
  27       -1.787748
  28       -1.570675
  29       -0.764042
  30       -0.645304
  31       -0.546408
  32       -0.539759
  33       -0.513887
  34       -0.288173
  35        3.850940
  36        4.482453

  0.1666667E+00  0.1666667E+00  0.1666667E+00  0.5000000E-01
   1      -21.064748
   2      -19.979952
   3      -14.435232
   4      -13.996484
   5      -13.993392
   6      -13.090030
   7      -12.631759
   8      -12.628517
   9       -8.602633
  10       -8.311180
  11       -7.351362
  12       -7.263764
  13       -6.769269
  14       -6.481922
  15       -6.281700
  16       -6.178797
  17       -3.818524
  18       -3.664895
  19       -3.298651
  20       -2.544020
  21       -2.447922
  22       -2.117868
  23       -2.026263
  24       -2.008971
  25       -1.895564
  26       -1.820182
  27       -1.723920
  28       -1.554647
  29       -0.871481
  30       -0.773795
  31       -0.582735
  32       -0.519324
  33       -0.457333
  34       -0.274621
  35        4.139896
  36        4.272506

  0.2222222E+00  0.2222222E+00  0.2222222E+00  0.5000000E-01
   1      -21.064288
   2      -19.979448
   3      -14.374803
   4      -14.027617
   5      -14.022621
   6      -13.026904
   7      -12.663786
   8      -12.658565
   9       -8.604744
  10       -8.311019
  11       -7.700609
  12       -7.267946
  13       -6.771114
  14       -6.522441
  15       -6.479531
  16       -6.286562
  17       -3.527464
  18       -3.404334
  19       -2.941879
  20       -2.338088
  21       -2.278161
  22       -2.178810
  23       -1.981670
  24       -1.818833
  25       -1.812446
  26       -1.711161
  27       -1.628392
  28       -1.521118
  29       -0.986519
  30       -0.914697
  31       -0.514671
  32       -0.474005
  33       -0.368025
  34       -0.245084
  35        3.647067
  36        3.993897

  0.2777778E+00  0.2777778E+00  0.2777778E+00  0.5000000E-01
   1      -21.063806
   2      -19.978921
   3      -14.307020
   4      -14.060028
   5      -14.053094
   6      -12.955811
   7      -12.697057
   8      -12.689840
   9       -8.609067
  10       -8.315535
  11       -8.024589
  12       -7.275437
  13       -6.841882
  14       -6.779018
  15       -6.488131
  16       -6.295004
  17       -3.177643
  18       -3.102016
  19       -2.736154
  20       -2.363940
  21       -2.292658
  22       -1.934518
  23       -1.758514
  24       -1.753295
  25       -1.632716
  26       -1.532733
  27       -1.462448
  28       -1.421194
  29       -1.082317
  30       -1.042140
  31       -0.412210
  32       -0.325492
  33       -0.199394
  34       -0.183799
  35        2.988336
  36        3.428314

  0.3333333E+00  0.3333333E+00  0.3333333E+00  0.5000000E-01
   1      -21.063395
   2      -19.978467
   3      -14.239714
   4      -14.089845
   5      -14.081168
   6      -12.884912
   7      -12.727613
   8      -12.718618
   9       -8.615044
  10       -8.324768
  11       -8.299832
  12       -7.285185
  13       -7.116047
  14       -6.792064
  15       -6.504208
  16       -6.305851
  17       -2.806013
  18       -2.794962
  19       -2.651922
  20       -2.396516
  21       -2.391444
  22       -1.688765
  23       -1.586752
  24       -1.551219
  25       -1.459913
  26       -1.438759
  27       -1.348408
  28       -1.179871
  29       -1.109216
  30       -0.969010
  31       -0.333873
  32       -0.215481
  33       -0.139774
  34        0.238305
  35        2.343753
  36        2.808547

  0.3888889E+00  0.3888889E+00  0.3888889E+00  0.5000000E-01
   1      -21.063060
   2      -19.978098
   3      -14.181949
   4      -14.113717
   5      -14.103675
   6      -12.823815
   7      -12.752029
   8      -12.741651
   9       -8.621261
  10       -8.511229
  11       -8.334231
  12       -7.326371
  13       -7.294977
  14       -6.806626
  15       -6.523459
  16       -6.316675
  17       -2.642934
  18       -2.607783
  19       -2.478221
  20       -2.413683
  21       -2.309432
  22       -1.613718
  23       -1.480814
  24       -1.474834
  25       -1.380394
  26       -1.268170
  27       -1.251427
  28       -1.078562
  29       -0.945430
  30       -0.505716
  31       -0.214595
  32       -0.134796
  33       -0.070714
  34        0.717123
  35        1.782502
  36        2.182644

  0.4444444E+00  0.4444444E+00  0.4444444E+00  0.5000000E-01
   1      -21.062856
   2      -19.977872
   3      -14.142720
   4      -14.129087
   5      -14.118176
   6      -12.782178
   7      -12.767732
   8      -12.756482
   9       -8.643500
  10       -8.625971
  11       -8.342459
  12       -7.458881
  13       -7.302225
  14       -6.817961
  15       -6.538939
  16       -6.324663
  17       -2.626263
  18       -2.579384
  19       -2.515801
  20       -2.148942
  21       -2.140782
  22       -1.528086
  23       -1.457236
  24       -1.440798
  25       -1.340910
  26       -1.284598
  27       -1.229726
  28       -0.776789
  29       -0.740517
  30       -0.247052
  31       -0.079545
  32       -0.003995
  33        0.123364
  34        1.006630
  35        1.510314
  36        1.609117

  0.5000000E+00  0.5000000E+00  0.5000000E+00  0.5000000E-01
   1      -21.062764
   2      -19.977772
   3      -14.134381
   4      -14.128785
   5      -14.123174
   6      -12.773133
   7      -12.767355
   8      -12.761586
   9       -8.688657
  10       -8.627719
  11       -8.345585
  12       -7.504189
  13       -7.304896
  14       -6.822220
  15       -6.544839
  16       -6.327599
  17       -2.629411
  18       -2.568841
  19       -2.531045
  20       -2.069478
  21       -2.051978
  22       -1.479392
  23       -1.455761
  24       -1.431079
  25       -1.325986
  26       -1.293206
  27       -1.208544
  28       -0.665655
  29       -0.659960
  30       -0.182863
  31       -0.058866
  32        0.027354
  33        0.406318
  34        0.965113
  35        1.288181
  36        1.594331

  0.5000000E+00  0.5000000E+00  0.5000000E+00  0.5000000E-01
   1      -21.062764
   2      -19.977772
   3      -14.134381
   4      -14.128785
   5      -14.123174
   6      -12.773133
   7      -12.767355
   8      -12.761586
   9       -8.688657
  10       -8.627719
  11       -8.345585
  12       -7.504189
  13       -7.304896
  14       -6.822220
  15       -6.544839
  16       -6.327599
  17       -2.629411
  18       -2.568841
  19       -2.531045
  20       -2.069478
  21       -2.051978
  22       -1.479392
  23       -1.455761
  24       -1.431079
  25       -1.325986
  26       -1.293206
  27       -1.208544
  28       -0.665655
  29       -0.659960
  30       -0.182863
  31       -0.058866
  32        0.027354
  33        0.406319
  34        0.965113
  35        1.288179
  36        1.593898

  0.5000000E+00  0.5000000E+00  0.4444444E+00  0.5000000E-01
   1      -21.062818
   2      -19.977829
   3      -14.134757
   4      -14.129205
   5      -14.123625
   6      -12.773594
   7      -12.767857
   8      -12.762114
   9       -8.673597
  10       -8.626983
  11       -8.344805
  12       -7.489073
  13       -7.303583
  14       -6.820892
  15       -6.543451
  16       -6.326161
  17       -2.629344
  18       -2.567615
  19       -2.530244
  20       -2.116739
  21       -2.059901
  22       -1.490433
  23       -1.461973
  24       -1.438049
  25       -1.326784
  26       -1.294223
  27       -1.215064
  28       -0.728300
  29       -0.663464
  30       -0.199802
  31       -0.071427
  32        0.014464
  33        0.296529
  34        1.039123
  35        1.329795
  36        1.577305

  0.5000000E+00  0.5000000E+00  0.3888889E+00  0.5000000E-01
   1      -21.062884
   2      -19.977902
   3      -14.136098
   4      -14.130389
   5      -14.124682
   6      -12.775243
   7      -12.769234
   8      -12.763314
   9       -8.629452
  10       -8.624830
  11       -8.342520
  12       -7.444796
  13       -7.299791
  14       -6.817041
  15       -6.539434
  16       -6.321988
  17       -2.633099
  18       -2.565049
  19       -2.527307
  20       -2.269848
  21       -2.062550
  22       -1.525173
  23       -1.485100
  24       -1.451999
  25       -1.333333
  26       -1.292208
  27       -1.228014
  28       -0.911722
  29       -0.665715
  30       -0.248297
  31       -0.111051
  32       -0.023249
  33        0.128761
  34        1.087242
  35        1.395932
  36        1.634679

  0.5000000E+00  0.5000000E+00  0.3333333E+00  0.5000000E-01
   1      -21.062990
   2      -19.978020
   3      -14.138925
   4      -14.131850
   5      -14.125825
   6      -12.778732
   7      -12.770866
   8      -12.764604
   9       -8.621537
  10       -8.559362
  11       -8.339019
  12       -7.374583
  13       -7.293966
  14       -6.811125
  15       -6.533277
  16       -6.315543
  17       -2.655314
  18       -2.606201
  19       -2.531647
  20       -2.431123
  21       -2.065356
  22       -1.584843
  23       -1.532528
  24       -1.465354
  25       -1.359145
  26       -1.280711
  27       -1.234457
  28       -1.165664
  29       -0.669122
  30       -0.319621
  31       -0.179808
  32       -0.097681
  33        0.031804
  34        1.058162
  35        1.447180
  36        1.780543

  0.5000000E+00  0.5000000E+00  0.2777778E+00  0.5000000E-01
   1      -21.063112
   2      -19.978155
   3      -14.143273
   4      -14.133087
   5      -14.126863
   6      -12.783974
   7      -12.772240
   8      -12.765797
   9       -8.617492
  10       -8.468837
  11       -8.334711
  12       -7.286786
  13       -7.284065
  14       -6.803832
  15       -6.525709
  16       -6.307539
  17       -2.879048
  18       -2.665481
  19       -2.510770
  20       -2.433916
  21       -2.069013
  22       -1.667900
  23       -1.601947
  24       -1.555044
  25       -1.431081
  26       -1.373211
  27       -1.241456
  28       -1.205944
  29       -0.673822
  30       -0.401590
  31       -0.270154
  32       -0.192419
  33       -0.002862
  34        1.007776
  35        1.521818
  36        1.921004

  0.5000000E+00  0.5000000E+00  0.2222222E+00  0.5000000E-01
   1      -21.063243
   2      -19.978301
   3      -14.148360
   4      -14.134086
   5      -14.127792
   6      -12.789991
   7      -12.773390
   8      -12.766893
   9       -8.613187
  10       -8.366106
  11       -8.330118
  12       -7.279105
  13       -7.181583
  14       -6.796028
  15       -6.517643
  16       -6.298904
  17       -3.182971
  18       -2.696132
  19       -2.474137
  20       -2.393376
  21       -2.074413
  22       -1.859954
  23       -1.745044
  24       -1.682284
  25       -1.469945
  26       -1.402332
  27       -1.205830
  28       -1.162727
  29       -0.680900
  30       -0.488833
  31       -0.372965
  32       -0.272653
  33       -0.018925
  34        0.963733
  35        1.606407
  36        2.042909

  0.5000000E+00  0.5000000E+00  0.1666667E+00  0.5000000E-01
   1      -21.063363
   2      -19.978434
   3      -14.153290
   4      -14.134893
   5      -14.128584
   6      -12.795770
   7      -12.774346
   8      -12.767843
   9       -8.609139
  10       -8.325790
  11       -8.262371
  12       -7.271850
  13       -7.078383
  14       -6.788653
  15       -6.510051
  16       -6.290674
  17       -3.466202
  18       -2.725287
  19       -2.433868
  20       -2.338675
  21       -2.141282
  22       -2.068728
  23       -1.845181
  24       -1.774661
  25       -1.503528
  26       -1.410278
  27       -1.158142
  28       -1.100724
  29       -0.695551
  30       -0.576499
  31       -0.482993
  32       -0.328642
  33       -0.028416
  34        0.931016
  35        1.686232
  36        2.145177

  0.5000000E+00  0.5000000E+00  0.1111111E+00  0.5000000E-01
   1      -21.063473
   2      -19.978555
   3      -14.157349
   4      -14.135505
   5      -14.129200
   6      -12.800509
   7      -12.775086
   8      -12.768592
   9       -8.605843
  10       -8.322261
  11       -8.171595
  12       -7.265910
  13       -6.988335
  14       -6.782613
  15       -6.503859
  16       -6.283883
  17       -3.694803
  18       -2.749336
  19       -2.447491
  20       -2.291504
  21       -2.275287
  22       -2.081930
  23       -1.938227
  24       -1.867609
  25       -1.532952
  26       -1.412007
  27       -1.098704
  28       -1.025070
  29       -0.737586
  30       -0.646347
  31       -0.587603
  32       -0.363304
  33       -0.034347
  34        0.908905
  35        1.750738
  36        2.222804

  0.5000000E+00  0.5000000E+00  0.5555556E-01  0.5000000E-01
   1      -21.063540
   2      -19.978629
   3      -14.160004
   4      -14.135891
   5      -14.129591
   6      -12.803602
   7      -12.775555
   8      -12.769070
   9       -8.603691
  10       -8.319953
  11       -8.108790
  12       -7.262019
  13       -6.926191
  14       -6.778655
  15       -6.499814
  16       -6.279407
  17       -3.843633
  18       -2.765116
  19       -2.557442
  20       -2.266316
  21       -2.214877
  22       -2.093114
  23       -2.016548
  24       -1.947761
  25       -1.552385
  26       -1.412305
  27       -1.032694
  28       -0.940480
  29       -0.809117
  30       -0.726879
  31       -0.638299
  32       -0.381966
  33       -0.037686
  34        0.896163
  35        1.792465
  36        2.271847

  0.5000000E+00  0.5000000E+00  0.0000000E+00  0.5000000E-01
   1      -21.063550
   2      -19.978642
   3      -14.160928
   4      -14.136025
   5      -14.129728
   6      -12.804674
   7      -12.775716
   8      -12.769234
   9       -8.602939
  10       -8.319145
  11       -8.086237
  12       -7.260665
  13       -6.903908
  14       -6.777275
  15       -6.498406
  16       -6.277843
  17       -3.895373
  18       -2.770603
  19       -2.604472
  20       -2.228807
  21       -2.195940
  22       -2.080648
  23       -2.070971
  24       -1.982431
  25       -1.559130
  26       -1.412334
  27       -0.990688
  28       -0.888440
  29       -0.826981
  30       -0.813223
  31       -0.646067
  32       -0.387854
  33       -0.038771
  34        0.892002
  35        1.806884
  36        2.288646
