PROCAR new format
# of k-points:   20         # of bands:  36         # of ions:   5

 k-point    1 :    0.00000000 0.00000000 0.00000000     weight = 0.05000000

band   1 # energy  -21.06551282 # occ.  1.00000000

ion      s      p      d    tot
  1  1.000  0.000  0.000  1.000
  2  0.000  0.000  0.000  0.000
  3  0.000  0.000  0.000  0.000
  4  0.000  0.000  0.000  0.000
  5  0.000  0.000  0.000  0.000
tot  1.000  0.000  0.000  1.000
  1  0.577 -0.000  0.000  0.577
  2  0.000 -0.000  0.000  0.000
  3  0.000  0.000  0.000  0.000
  4  0.000 -0.000  0.000  0.000
  5  0.000 -0.000  0.000  0.000
tot  0.577 -0.000  0.000  0.577
  1  0.577 -0.000 -0.000  0.577
  2  0.000  0.000 -0.000  0.000
  3  0.000  0.000  0.000  0.000
  4  0.000  0.000  0.000  0.000
  5  0.000 -0.000  0.000  0.000
tot  0.577 -0.000  0.000  0.577
  1  0.577  0.000  0.000  0.577
  2  0.000  0.000  0.000  0.000
  3  0.000  0.000  0.000  0.000
  4  0.000  0.000  0.000  0.000
  5  0.000  0.000  0.000  0.000
tot  0.577  0.000  0.000  0.577

band   2 # energy  -19.98078701 # occ.  1.00000000

ion      s      p      d    tot
  1  0.937  0.000  0.000  0.937
  2  0.000  0.000  0.000  0.000
  3  0.000  0.000  0.000  0.000
  4  0.000  0.000  0.000  0.000
  5  0.000  0.000  0.000  0.000
tot  0.937  0.000  0.000  0.937
  1 -0.541  0.000  0.000 -0.541
  2 -0.000 -0.000  0.000 -0.000
  3 -0.000 -0.000 -0.000 -0.000
  4 -0.000  0.000 -0.000 -0.000
  5 -0.000 -0.000 -0.000 -0.000
tot -0.541  0.000 -0.000 -0.541
  1 -0.541  0.000 -0.000 -0.541
  2 -0.000 -0.000 -0.000 -0.000
  3 -0.000 -0.000 -0.000 -0.000
  4 -0.000 -0.000 -0.000 -0.000
  5 -0.000 -0.000 -0.000 -0.000
tot -0.541 -0.000 -0.000 -0.541
  1 -0.541 -0.000 -0.000 -0.541
  2 -0.000  0.000 -0.000 -0.000
  3 -0.000  0.000 -0.000 -0.000
  4 -0.000  0.000 -0.000 -0.000
  5 -0.000  0.000 -0.000 -0.000
tot -0.541  0.000 -0.000 -0.541

band   3 # energy  -14.52234515 # occ.  1.00000000

ion      s      p      d    tot
  1  0.001  0.000  0.000  0.001
  2  0.063  0.000  0.000  0.063
  3  0.243  0.000  0.000  0.244
  4  0.243  0.000  0.000  0.244
  5  0.243  0.000  0.000  0.244
tot  0.794  0.000  0.000  0.794
  1  0.000  0.000 -0.000  0.000
  2  0.036 -0.000 -0.000  0.036
  3  0.141  0.000  0.000  0.141
  4  0.141 -0.000  0.000  0.141
  5  0.141 -0.000  0.000  0.141
tot  0.458 -0.000  0.000  0.458
  1  0.000 -0.000 -0.000  0.000
  2  0.036 -0.000 -0.000  0.036
  3  0.141 -0.000  0.000  0.141
  4  0.141 -0.000  0.000  0.141
  5  0.141  0.000  0.000  0.141
tot  0.458 -0.000  0.000  0.458
  1  0.000  0.000 -0.000  0.000
  2  0.036  0.000 -0.000  0.036
  3  0.141  0.000  0.000  0.141
  4  0.141  0.000  0.000  0.141
  5  0.141  0.000  0.000  0.141
tot  0.458  0.000  0.000  0.458

band   4 # energy  -13.94745518 # occ.  1.00000000

ion      s      p      d    tot
  1  0.000  0.000  0.000  0.000
  2  0.000  0.000  0.005  0.005
  3  0.290  0.000  0.000  0.290
  4  0.475  0.000  0.000  0.475
  5  0.049  0.000  0.000  0.049
tot  0.815  0.000  0.005  0.820
  1 -0.000 -0.000  0.000  0.000
  2 -0.000  0.000  0.003  0.003
  3  0.168  0.000  0.000  0.168
  4  0.274  0.000  0.000  0.274
  5  0.029  0.000  0.000  0.029
tot  0.471  0.000  0.003  0.473
  1 -0.000 -0.000  0.000  0.000
  2 -0.000  0.000  0.003  0.003
  3  0.168  0.000  0.000  0.168
  4  0.274  0.000  0.000  0.274
  5  0.029  0.000  0.000  0.029
tot  0.471  0.000  0.003  0.473
  1  0.000  0.000  0.000  0.000
  2  0.000 -0.000  0.003  0.003
  3  0.168 -0.000  0.000  0.168
  4  0.274 -0.000  0.000  0.274
  5  0.029  0.000  0.000  0.029
tot  0.471 -0.000  0.003  0.473

band   5 # energy  -13.94745518 # occ.  1.00000000

ion      s      p      d    tot
  1  0.000  0.000  0.000  0.000
  2  0.000  0.000  0.005  0.005
  3  0.253  0.000  0.000  0.253
  4  0.068  0.000  0.000  0.068
  5  0.494  0.000  0.000  0.494
tot  0.815  0.000  0.005  0.820
  1  0.000 -0.000  0.000  0.000
  2 -0.000  0.000  0.003  0.003
  3  0.146 -0.000  0.000  0.146
  4  0.039  0.000  0.000  0.039
  5  0.285  0.000  0.000  0.285
tot  0.471  0.000  0.003  0.473
  1  0.000  0.000  0.000  0.000
  2  0.000 -0.000  0.003  0.003
  3  0.146 -0.000  0.000  0.146
  4  0.039  0.000  0.000  0.039
  5  0.285 -0.000  0.000  0.285
tot  0.471 -0.000  0.003  0.473
  1  0.000  0.000  0.000  0.000
  2 -0.000  0.000  0.003  0.003
  3  0.146  0.000  0.000  0.146
  4  0.039  0.000  0.000  0.039
  5  0.285 -0.000  0.000  0.285
tot  0.471  0.000  0.003  0.473

band   6 # energy  -13.18061815 # occ.  1.00000000

ion      s      p      d    tot
  1  0.001  0.000  0.000  0.001
  2  0.065  0.000  0.000  0.065
  3  0.236  0.000  0.000  0.236
  4  0.236  0.000  0.000  0.236
  5  0.236  0.000  0.000  0.236
tot  0.774  0.000  0.000  0.774
  1 -0.000  0.000  0.000 -0.000
  2 -0.037  0.000 -0.000 -0.037
  3 -0.136  0.000 -0.000 -0.136
  4 -0.136  0.000 -0.000 -0.136
  5 -0.136  0.000 -0.000 -0.136
tot -0.447  0.000 -0.000 -0.447
  1 -0.000 -0.000  0.000 -0.000
  2 -0.037  0.000 -0.000 -0.037
  3 -0.136  0.000 -0.000 -0.136
  4 -0.136 -0.000 -0.000 -0.136
  5 -0.136  0.000 -0.000 -0.136
tot -0.447  0.000 -0.000 -0.447
  1 -0.000  0.000  0.000 -0.000
  2 -0.037  0.000 -0.000 -0.037
  3 -0.136  0.000 -0.000 -0.136
  4 -0.136  0.000 -0.000 -0.136
  5 -0.136  0.000 -0.000 -0.136
tot -0.447  0.000 -0.000 -0.447

band   7 # energy  -12.58121207 # occ.  1.00000000

ion      s      p      d    tot
  1  0.000  0.000  0.000  0.000
  2  0.000  0.000  0.005  0.005
  3  0.195  0.000  0.000  0.195
  4  0.466  0.000  0.000  0.466
  5  0.135  0.000  0.000  0.135
tot  0.796  0.000  0.005  0.801
  1  0.000  0.000 -0.000 -0.000
  2 -0.000 -0.000 -0.003 -0.003
  3 -0.112  0.000 -0.000 -0.112
  4 -0.269 -0.000 -0.000 -0.269
  5 -0.078 -0.000 -0.000 -0.078
tot -0.459  0.000 -0.003 -0.462
  1  0.000  0.000 -0.000 -0.000
  2  0.000  0.000 -0.003 -0.003
  3 -0.112  0.000 -0.000 -0.112
  4 -0.269  0.000 -0.000 -0.269
  5 -0.078  0.000 -0.000 -0.078
tot -0.459  0.000 -0.003 -0.462
  1  0.000  0.000 -0.000 -0.000
  2 -0.000  0.000 -0.003 -0.003
  3 -0.112  0.000 -0.000 -0.112
  4 -0.269  0.000 -0.000 -0.269
  5 -0.078 -0.000 -0.000 -0.078
tot -0.459  0.000 -0.003 -0.462

band   8 # energy  -12.58121207 # occ.  1.00000000

ion      s      p      d    tot
  1  0.000  0.000  0.000  0.000
  2  0.000  0.000  0.005  0.005
  3  0.336  0.000  0.000  0.336
  4  0.064  0.000  0.000  0.064
  5  0.396  0.000  0.000  0.396
tot  0.796  0.000  0.005  0.801
  1  0.000  0.000 -0.000 -0.000
  2 -0.000 -0.000 -0.003 -0.003
  3 -0.194  0.000 -0.000 -0.194
  4 -0.037 -0.000 -0.000 -0.037
  5 -0.229 -0.000 -0.000 -0.229
tot -0.459 -0.000 -0.003 -0.462
  1  0.000  0.000 -0.000 -0.000
  2  0.000  0.000 -0.003 -0.003
  3 -0.194  0.000 -0.000 -0.194
  4 -0.037  0.000 -0.000 -0.037
  5 -0.229  0.000 -0.000 -0.229
tot -0.459  0.000 -0.003 -0.462
  1  0.000 -0.000 -0.000 -0.000
  2  0.000  0.000 -0.003 -0.003
  3 -0.194  0.000 -0.000 -0.194
  4 -0.037  0.000 -0.000 -0.037
  5 -0.229 -0.000 -0.000 -0.229
tot -0.459  0.000 -0.003 -0.462

band   9 # energy   -8.60320101 # occ.  1.00000000

ion      s      p      d    tot
  1  0.000  0.796  0.000  0.796
  2  0.000  0.000  0.000  0.000
  3  0.000  0.000  0.000  0.000
  4  0.000  0.000  0.000  0.000
  5  0.000  0.000  0.000  0.000
tot  0.000  0.798  0.000  0.798
  1 -0.000  0.327  0.000  0.327
  2  0.000  0.000 -0.000  0.000
  3 -0.000  0.000  0.000  0.000
  4 -0.000  0.000 -0.000  0.000
  5 -0.000  0.000  0.000  0.000
tot -0.000  0.327 -0.000  0.327
  1  0.000  0.327 -0.000  0.327
  2  0.000  0.000 -0.000  0.000
  3 -0.000  0.000 -0.000  0.000
  4  0.000  0.000  0.000  0.000
  5 -0.000  0.000  0.000  0.000
tot -0.000  0.327 -0.000  0.327
  1  0.000  0.327 -0.000  0.327
  2 -0.000  0.000 -0.000  0.000
  3 -0.000  0.000 -0.000  0.000
  4  0.000  0.000  0.000  0.000
  5 -0.000  0.000 -0.000  0.000
tot -0.000  0.327 -0.000  0.327

band  10 # energy   -8.31961627 # occ.  1.00000000

ion      s      p      d    tot
  1  0.000  0.793  0.000  0.793
  2  0.000  0.000  0.000  0.000
  3  0.000  0.000  0.000  0.000
  4  0.000  0.000  0.000  0.000
  5  0.000  0.000  0.000  0.000
tot  0.000  0.795  0.000  0.795
  1 -0.000  0.135  0.000  0.135
  2 -0.000  0.000 -0.000  0.000
  3 -0.000  0.000  0.000  0.000
  4  0.000  0.000 -0.000  0.000
  5 -0.000  0.000 -0.000  0.000
tot -0.000  0.135 -0.000  0.135
  1 -0.000  0.135  0.000  0.135
  2  0.000  0.000 -0.000  0.000
  3  0.000  0.000  0.000  0.000
  4 -0.000  0.000  0.000  0.000
  5  0.000  0.000  0.000  0.000
tot -0.000  0.135 -0.000  0.135
  1  0.000  0.135  0.000  0.135
  2  0.000  0.000 -0.000  0.000
  3  0.000  0.000  0.000  0.000
  4  0.000  0.000  0.000  0.000
  5  0.000  0.000  0.000  0.000
tot  0.000  0.135 -0.000  0.135

band  11 # energy   -7.26306852 # occ.  1.00000000

ion      s      p      d    tot
  1  0.000  0.760  0.000  0.760
  2  0.000  0.001  0.000  0.001
  3  0.000  0.001  0.000  0.001
  4  0.000  0.001  0.000  0.001
  5  0.000  0.001  0.000  0.001
tot  0.000  0.764  0.000  0.764
  1  0.000  0.439  0.000  0.439
  2  0.000  0.000 -0.000  0.000
  3 -0.000  0.001  0.000  0.001
  4 -0.000  0.001  0.000  0.001
  5  0.000  0.001  0.000  0.001
tot  0.000  0.441 -0.000  0.441
  1 -0.000  0.439  0.000  0.439
  2 -0.000  0.000 -0.000  0.000
  3  0.000  0.001  0.000  0.001
  4 -0.000  0.001  0.000  0.001
  5  0.000  0.001  0.000  0.001
tot -0.000  0.441 -0.000  0.441
  1  0.000  0.439  0.000  0.439
  2  0.000  0.000  0.000  0.000
  3  0.000  0.001  0.000  0.001
  4 -0.000  0.001  0.000  0.001
  5  0.000  0.001  0.000  0.001
tot  0.000  0.441  0.000  0.441

band  12 # energy   -6.77925793 # occ.  1.00000000

ion      s      p      d    tot
  1  0.000  0.759  0.000  0.759
  2  0.000  0.001  0.000  0.001
  3  0.000  0.001  0.000  0.001
  4  0.000  0.001  0.000  0.001
  5  0.000  0.001  0.000  0.001
tot  0.000  0.763  0.000  0.763
  1 -0.000 -0.139 -0.000 -0.139
  2 -0.000  0.000 -0.000  0.000
  3  0.000  0.000  0.000  0.000
  4  0.000 -0.000 -0.000 -0.000
  5 -0.000 -0.000  0.000 -0.000
tot -0.000 -0.138 -0.000 -0.138
  1 -0.000 -0.139 -0.000 -0.139
  2 -0.000  0.000 -0.000  0.000
  3  0.000 -0.000  0.000 -0.000
  4 -0.000  0.000  0.000  0.000
  5 -0.000 -0.000 -0.000 -0.000
tot -0.000 -0.138 -0.000 -0.138
  1  0.000 -0.139 -0.000 -0.139
  2 -0.000  0.000 -0.000  0.000
  3 -0.000 -0.000  0.000 -0.000
  4  0.000 -0.000  0.000 -0.000
  5 -0.000  0.000  0.000  0.000
tot -0.000 -0.138 -0.000 -0.138

band  13 # energy   -6.63352066 # occ.  1.00000000

ion      s      p      d    tot
  1  0.000  0.000  0.000  0.000
  2  0.834  0.000  0.000  0.834
  3  0.029  0.000  0.003  0.031
  4  0.029  0.000  0.003  0.031
  5  0.029  0.000  0.003  0.031
tot  0.920  0.000  0.008  0.928
  1  0.000 -0.000  0.000  0.000
  2  0.482  0.000 -0.000  0.482
  3  0.017 -0.000  0.001  0.018
  4  0.017  0.000  0.001  0.018
  5  0.017  0.000  0.001  0.018
tot  0.531  0.000  0.004  0.536
  1  0.000 -0.000  0.000  0.000
  2  0.482  0.000 -0.000  0.482
  3  0.017  0.000  0.001  0.018
  4  0.017 -0.000  0.001  0.018
  5  0.017  0.000  0.001  0.018
tot  0.531  0.000  0.004  0.536
  1  0.000  0.000  0.000  0.000
  2  0.482 -0.000  0.000  0.482
  3  0.017 -0.000  0.001  0.018
  4  0.017 -0.000  0.001  0.018
  5  0.017 -0.000  0.001  0.018
tot  0.531 -0.000  0.004  0.536

band  14 # energy   -6.49962625 # occ.  1.00000000

ion      s      p      d    tot
  1  0.000  0.756  0.000  0.756
  2  0.000  0.001  0.000  0.001
  3  0.000  0.001  0.000  0.001
  4  0.000  0.001  0.000  0.001
  5  0.000  0.001  0.000  0.001
tot  0.000  0.760  0.000  0.760
  1  0.000 -0.315  0.000 -0.315
  2 -0.000 -0.000 -0.000 -0.000
  3 -0.000 -0.001  0.000 -0.001
  4  0.000 -0.000  0.000 -0.000
  5  0.000 -0.000  0.000 -0.000
tot -0.000 -0.316  0.000 -0.316
  1  0.000 -0.315  0.000 -0.315
  2  0.000 -0.000 -0.000 -0.000
  3 -0.000 -0.000  0.000 -0.000
  4  0.000 -0.001  0.000 -0.001
  5  0.000 -0.000  0.000 -0.000
tot  0.000 -0.316  0.000 -0.316
  1 -0.000 -0.315  0.000 -0.315
  2 -0.000 -0.000 -0.000 -0.000
  3  0.000 -0.000  0.000 -0.000
  4  0.000 -0.000  0.000 -0.000
  5  0.000 -0.001  0.000 -0.001
tot -0.000 -0.316 -0.000 -0.316

band  15 # energy   -6.28037579 # occ.  1.00000000

ion      s      p      d    tot
  1  0.000  0.753  0.000  0.753
  2  0.000  0.001  0.000  0.001
  3  0.000  0.001  0.000  0.001
  4  0.000  0.001  0.000  0.001
  5  0.000  0.001  0.000  0.001
tot  0.000  0.757  0.000  0.757
  1 -0.000 -0.435  0.000 -0.435
  2  0.000 -0.000 -0.000 -0.000
  3  0.000 -0.001  0.000 -0.001
  4  0.000 -0.001  0.000 -0.001
  5 -0.000 -0.001  0.000 -0.001
tot  0.000 -0.437  0.000 -0.437
  1 -0.000 -0.435  0.000 -0.435
  2 -0.000 -0.000  0.000 -0.000
  3  0.000 -0.001  0.000 -0.001
  4  0.000 -0.001  0.000 -0.001
  5 -0.000 -0.001  0.000 -0.001
tot -0.000 -0.437  0.000 -0.437
  1  0.000 -0.435  0.000 -0.435
  2  0.000 -0.000  0.000 -0.000
  3 -0.000 -0.001  0.000 -0.001
  4  0.000 -0.001  0.000 -0.001
  5  0.000 -0.001 -0.000 -0.001
tot  0.000 -0.437  0.000 -0.437

band  16 # energy   -5.49181716 # occ.  1.00000000

ion      s      p      d    tot
  1  0.000  0.000  0.000  0.000
  2  0.823  0.000  0.000  0.823
  3  0.029  0.000  0.002  0.031
  4  0.029  0.000  0.002  0.031
  5  0.029  0.000  0.002  0.031
tot  0.910  0.000  0.007  0.917
  1 -0.000  0.000  0.000 -0.000
  2 -0.475  0.000 -0.000 -0.475
  3 -0.017  0.000 -0.001 -0.018
  4 -0.017  0.000 -0.001 -0.018
  5 -0.017 -0.000 -0.001 -0.018
tot -0.525  0.000 -0.004 -0.530
  1 -0.000  0.000  0.000 -0.000
  2 -0.475 -0.000 -0.000 -0.475
  3 -0.017 -0.000 -0.001 -0.018
  4 -0.017  0.000 -0.001 -0.018
  5 -0.017 -0.000 -0.001 -0.018
tot -0.525 -0.000 -0.004 -0.530
  1 -0.000 -0.000  0.000 -0.000
  2 -0.475  0.000 -0.000 -0.475
  3 -0.017  0.000 -0.001 -0.018
  4 -0.017  0.000 -0.001 -0.018
  5 -0.017  0.000 -0.001 -0.018
tot -0.525  0.000 -0.004 -0.530

band  17 # energy   -4.21697745 # occ.  1.00000000

ion      s      p      d    tot
  1  0.000  0.005  0.000  0.005
  2  0.000  0.228  0.000  0.228
  3  0.000  0.132  0.000  0.132
  4  0.000  0.132  0.000  0.132
  5  0.000  0.132  0.000  0.132
tot  0.000  0.630  0.000  0.630
  1  0.000  0.003  0.000  0.003
  2 -0.000  0.126 -0.000  0.126
  3 -0.000  0.063  0.000  0.063
  4 -0.000  0.082  0.000  0.082
  5 -0.000  0.082  0.000  0.082
tot -0.000  0.355 -0.000  0.355
  1  0.000  0.003  0.000  0.003
  2 -0.000  0.126 -0.000  0.126
  3  0.000  0.082 -0.000  0.082
  4  0.000  0.063  0.000  0.063
  5 -0.000  0.082  0.000  0.082
tot  0.000  0.355 -0.000  0.355
  1  0.000  0.003  0.000  0.003
  2  0.000  0.126 -0.000  0.126
  3 -0.000  0.082  0.000  0.082
  4 -0.000  0.082  0.000  0.082
  5  0.000  0.063  0.000  0.063
tot  0.000  0.355 -0.000  0.355

band  18 # energy   -4.12868061 # occ.  1.00000000

ion      s      p      d    tot
  1  0.000  0.007  0.000  0.007
  2  0.000  0.212  0.000  0.212
  3  0.000  0.138  0.000  0.138
  4  0.000  0.138  0.000  0.138
  5  0.000  0.138  0.000  0.138
tot  0.000  0.633  0.000  0.633
  1  0.000  0.004  0.000  0.004
  2 -0.000  0.115 -0.000  0.115
  3 -0.000  0.097  0.000  0.097
  4 -0.000  0.069  0.000  0.069
  5 -0.000  0.069  0.000  0.069
tot -0.000  0.355 -0.000  0.355
  1 -0.000  0.004  0.000  0.004
  2 -0.000  0.115 -0.000  0.115
  3  0.000  0.069 -0.000  0.069
  4 -0.000  0.097  0.000  0.097
  5  0.000  0.069  0.000  0.069
tot -0.000  0.355 -0.000  0.355
  1 -0.000  0.004  0.000  0.004
  2 -0.000  0.115 -0.000  0.115
  3 -0.000  0.069  0.000  0.069
  4 -0.000  0.069  0.000  0.069
  5  0.000  0.097  0.000  0.097
tot -0.000  0.355 -0.000  0.355

band  19 # energy   -4.02562370 # occ.  1.00000000

ion      s      p      d    tot
  1  0.000  0.010  0.000  0.010
  2  0.000  0.191  0.000  0.191
  3  0.000  0.146  0.000  0.146
  4  0.000  0.146  0.000  0.146
  5  0.000  0.146  0.000  0.146
tot  0.000  0.638  0.000  0.638
  1  0.000  0.006  0.000  0.006
  2 -0.000  0.110 -0.000  0.110
  3 -0.000  0.078 -0.000  0.078
  4  0.000  0.086 -0.000  0.086
  5 -0.000  0.086  0.000  0.086
tot  0.000  0.366 -0.000  0.366
  1  0.000  0.006  0.000  0.006
  2 -0.000  0.110 -0.000  0.110
  3  0.000  0.086  0.000  0.086
  4 -0.000  0.078  0.000  0.078
  5  0.000  0.086  0.000  0.086
tot  0.000  0.366 -0.000  0.366
  1  0.000  0.006  0.000  0.006
  2 -0.000  0.110 -0.000  0.110
  3  0.000  0.086  0.000  0.086
  4  0.000  0.086  0.000  0.086
  5 -0.000  0.078  0.000  0.078
tot  0.000  0.366 -0.000  0.366

band  20 # energy   -2.92172713 # occ.  1.00000000

ion      s      p      d    tot
  1  0.000  0.007  0.000  0.007
  2  0.000  0.214  0.000  0.214
  3  0.000  0.132  0.000  0.132
  4  0.000  0.132  0.000  0.132
  5  0.000  0.132  0.000  0.132
tot  0.000  0.617  0.000  0.617
  1  0.000 -0.003  0.000 -0.003
  2 -0.000 -0.122 -0.000 -0.122
  3 -0.000 -0.090 -0.000 -0.090
  4  0.000 -0.060  0.000 -0.060
  5  0.000 -0.060  0.000 -0.060
tot -0.000 -0.334 -0.000 -0.334
  1 -0.000 -0.003  0.000 -0.003
  2 -0.000 -0.122  0.000 -0.122
  3  0.000 -0.060  0.000 -0.060
  4  0.000 -0.090  0.000 -0.090
  5  0.000 -0.060 -0.000 -0.060
tot  0.000 -0.334  0.000 -0.334
  1 -0.000 -0.003  0.000 -0.003
  2 -0.000 -0.122 -0.000 -0.122
  3 -0.000 -0.060  0.000 -0.060
  4  0.000 -0.060 -0.000 -0.060
  5  0.000 -0.090  0.000 -0.090
tot -0.000 -0.334 -0.000 -0.334

band  21 # energy   -2.83116646 # occ.  1.00000000

ion      s      p      d    tot
  1  0.000  0.009  0.000  0.009
  2  0.000  0.197  0.000  0.197
  3  0.000  0.138  0.000  0.138
  4  0.000  0.138  0.000  0.138
  5  0.000  0.138  0.000  0.138
tot  0.000  0.620  0.000  0.620
  1  0.000 -0.004  0.000 -0.004
  2 -0.000 -0.112 -0.000 -0.112
  3 -0.000 -0.072  0.000 -0.072
  4  0.000 -0.074  0.000 -0.074
  5  0.000 -0.074  0.000 -0.074
tot -0.000 -0.337 -0.000 -0.337
  1  0.000 -0.004  0.000 -0.004
  2  0.000 -0.112 -0.000 -0.112
  3 -0.000 -0.074  0.000 -0.074
  4  0.000 -0.072 -0.000 -0.072
  5 -0.000 -0.074  0.000 -0.074
tot  0.000 -0.337 -0.000 -0.337
  1  0.000 -0.004  0.000 -0.004
  2  0.000 -0.112 -0.000 -0.112
  3  0.000 -0.074  0.000 -0.074
  4  0.000 -0.074  0.000 -0.074
  5 -0.000 -0.072  0.000 -0.072
tot -0.000 -0.337 -0.000 -0.337

band  22 # energy   -2.76293365 # occ.  1.00000000

ion      s      p      d    tot
  1  0.000  0.010  0.000  0.010
  2  0.000  0.178  0.000  0.178
  3  0.000  0.144  0.000  0.144
  4  0.000  0.144  0.000  0.144
  5  0.000  0.144  0.000  0.144
tot  0.000  0.622  0.000  0.622
  1 -0.000 -0.006  0.000 -0.006
  2 -0.000 -0.103 -0.000 -0.103
  3 -0.000 -0.051  0.000 -0.051
  4 -0.000 -0.084  0.000 -0.084
  5 -0.000 -0.084 -0.000 -0.084
tot -0.000 -0.327 -0.000 -0.327
  1  0.000 -0.006  0.000 -0.006
  2  0.000 -0.103 -0.000 -0.103
  3  0.000 -0.084  0.000 -0.084
  4 -0.000 -0.051  0.000 -0.051
  5  0.000 -0.084  0.000 -0.084
tot  0.000 -0.327  0.000 -0.327
  1 -0.000 -0.006  0.000 -0.006
  2  0.000 -0.103 -0.000 -0.103
  3  0.000 -0.084  0.000 -0.084
  4  0.000 -0.084 -0.000 -0.084
  5 -0.000 -0.051  0.000 -0.051
tot  0.000 -0.327 -0.000 -0.327

band  23 # energy   -1.93794664 # occ.  1.00000000

ion      s      p      d    tot
  1  0.000  0.008  0.000  0.008
  2  0.000  0.006  0.000  0.006
  3  0.000  0.204  0.000  0.204
  4  0.000  0.204  0.000  0.204
  5  0.000  0.204  0.000  0.204
tot  0.000  0.626  0.000  0.626
  1 -0.000  0.004 -0.000  0.004
  2  0.000  0.003  0.000  0.003
  3  0.000  0.139  0.000  0.139
  4  0.000  0.097 -0.000  0.097
  5 -0.000  0.097 -0.000  0.097
tot  0.000  0.340 -0.000  0.340
  1  0.000  0.004  0.000  0.004
  2  0.000  0.003  0.000  0.003
  3  0.000  0.097 -0.000  0.097
  4  0.000  0.139 -0.000  0.139
  5  0.000  0.097  0.000  0.097
tot  0.000  0.340  0.000  0.340
  1 -0.000  0.004 -0.000  0.004
  2 -0.000  0.003  0.000  0.003
  3  0.000  0.097 -0.000  0.097
  4  0.000  0.097  0.000  0.097
  5 -0.000  0.139 -0.000  0.139
tot -0.000  0.340 -0.000  0.340

band  24 # energy   -1.88987041 # occ.  1.00000000

ion      s      p      d    tot
  1  0.000  0.000  0.000  0.000
  2  0.000  0.011  0.000  0.011
  3  0.000  0.197  0.000  0.197
  4  0.000  0.197  0.000  0.197
  5  0.000  0.197  0.000  0.197
tot  0.000  0.601  0.000  0.601
  1 -0.000 -0.000  0.000 -0.000
  2  0.000 -0.006 -0.000 -0.006
  3 -0.000  0.092  0.000  0.092
  4 -0.000  0.115  0.000  0.115
  5  0.000  0.115  0.000  0.115
tot  0.000  0.316  0.000  0.316
  1  0.000 -0.000 -0.000 -0.000
  2 -0.000 -0.006 -0.000 -0.006
  3  0.000  0.115  0.000  0.115
  4 -0.000  0.092 -0.000  0.092
  5  0.000  0.115 -0.000  0.115
tot -0.000  0.316 -0.000  0.316
  1 -0.000 -0.000 -0.000 -0.000
  2  0.000 -0.006 -0.000 -0.006
  3 -0.000  0.115  0.000  0.115
  4  0.000  0.115  0.000  0.115
  5  0.000  0.092 -0.000  0.092
tot  0.000  0.316 -0.000  0.316

band  25 # energy   -1.84620001 # occ.  1.00000000

ion      s      p      d    tot
  1  0.000  0.000  0.000  0.000
  2  0.000  0.006  0.000  0.006
  3  0.000  0.199  0.000  0.199
  4  0.000  0.199  0.000  0.199
  5  0.000  0.199  0.000  0.199
tot  0.000  0.603  0.000  0.603
  1 -0.000  0.000  0.000  0.000
  2  0.000  0.000  0.000  0.000
  3  0.000  0.140  0.000  0.140
  4  0.000  0.097  0.000  0.097
  5 -0.000  0.097  0.000  0.097
tot  0.000  0.335  0.000  0.335
  1  0.000  0.000  0.000  0.000
  2  0.000  0.000  0.000  0.000
  3  0.000  0.097  0.000  0.097
  4  0.000  0.140  0.000  0.140
  5  0.000  0.097  0.000  0.097
tot  0.000  0.335  0.000  0.335
  1  0.000  0.000  0.000  0.000
  2  0.000  0.000  0.000  0.000
  3 -0.000  0.097  0.000  0.097
  4 -0.000  0.097  0.000  0.097
  5  0.000  0.140  0.000  0.140
tot -0.000  0.335  0.000  0.335

band  26 # energy   -1.77772163 # occ.  1.00000000

ion      s      p      d    tot
  1  0.000  0.008  0.000  0.008
  2  0.000  0.005  0.000  0.005
  3  0.000  0.203  0.000  0.203
  4  0.000  0.203  0.000  0.203
  5  0.000  0.203  0.000  0.203
tot  0.000  0.623  0.000  0.623
  1 -0.000  0.005  0.000  0.005
  2  0.000  0.003 -0.000  0.003
  3  0.000  0.070  0.000  0.070
  4  0.000  0.127  0.000  0.127
  5  0.000  0.127  0.000  0.127
tot  0.000  0.332  0.000  0.332
  1  0.000  0.005  0.000  0.005
  2  0.000  0.003 -0.000  0.003
  3 -0.000  0.127  0.000  0.127
  4  0.000  0.070  0.000  0.070
  5 -0.000  0.127  0.000  0.127
tot  0.000  0.332  0.000  0.332
  1 -0.000  0.005  0.000  0.005
  2 -0.000  0.003 -0.000  0.003
  3 -0.000  0.127  0.000  0.127
  4  0.000  0.127  0.000  0.127
  5  0.000  0.070  0.000  0.070
tot  0.000  0.332  0.000  0.332

band  27 # energy   -1.76772635 # occ.  1.00000000

ion      s      p      d    tot
  1  0.000  0.000  0.000  0.000
  2  0.000  0.003  0.000  0.003
  3  0.000  0.198  0.000  0.198
  4  0.000  0.198  0.000  0.198
  5  0.000  0.198  0.000  0.198
tot  0.000  0.597  0.000  0.597
  1  0.000 -0.000 -0.000 -0.000
  2  0.000 -0.001 -0.000 -0.001
  3 -0.000  0.101  0.000  0.101
  4 -0.000  0.117  0.000  0.117
  5  0.000  0.117  0.000  0.117
tot -0.000  0.333 -0.000  0.333
  1  0.000 -0.000  0.000 -0.000
  2 -0.000 -0.001 -0.000 -0.001
  3  0.000  0.117  0.000  0.117
  4  0.000  0.101 -0.000  0.101
  5 -0.000  0.117  0.000  0.117
tot  0.000  0.333  0.000  0.333
  1  0.000 -0.000  0.000 -0.000
  2 -0.000 -0.001 -0.000 -0.001
  3 -0.000  0.117  0.000  0.117
  4  0.000  0.117 -0.000  0.117
  5  0.000  0.101 -0.000  0.101
tot  0.000  0.333  0.000  0.333

band  28 # energy   -1.57346507 # occ.  1.00000000

ion      s      p      d    tot
  1  0.000  0.011  0.000  0.011
  2  0.000  0.010  0.000  0.010
  3  0.000  0.203  0.000  0.203
  4  0.000  0.203  0.000  0.203
  5  0.000  0.203  0.000  0.203
tot  0.000  0.631  0.000  0.631
  1  0.000  0.006  0.000  0.006
  2 -0.000  0.006 -0.000  0.006
  3 -0.000  0.109  0.000  0.109
  4  0.000  0.121 -0.000  0.121
  5 -0.000  0.121  0.000  0.121
tot -0.000  0.363  0.000  0.363
  1  0.000  0.006 -0.000  0.006
  2  0.000  0.006 -0.000  0.006
  3  0.000  0.121 -0.000  0.121
  4 -0.000  0.109 -0.000  0.109
  5 -0.000  0.121  0.000  0.121
tot -0.000  0.363 -0.000  0.363
  1  0.000  0.006 -0.000  0.006
  2 -0.000  0.006  0.000  0.006
  3 -0.000  0.121 -0.000  0.121
  4 -0.000  0.121 -0.000  0.121
  5 -0.000  0.109 -0.000  0.109
tot -0.000  0.363 -0.000  0.363

band  29 # energy   -0.66233042 # occ.  1.00000000

ion      s      p      d    tot
  1  0.000  0.000  0.000  0.000
  2  0.000  0.002  0.000  0.002
  3  0.000  0.193  0.000  0.193
  4  0.000  0.193  0.000  0.193
  5  0.000  0.193  0.000  0.193
tot  0.000  0.582  0.000  0.582
  1 -0.000  0.000  0.000  0.000
  2  0.000  0.000 -0.000  0.000
  3 -0.000 -0.099  0.000 -0.099
  4  0.000 -0.117  0.000 -0.117
  5 -0.000 -0.117  0.000 -0.117
tot  0.000 -0.333  0.000 -0.333
  1  0.000  0.000  0.000  0.000
  2  0.000  0.000  0.000  0.000
  3  0.000 -0.117 -0.000 -0.117
  4 -0.000 -0.099  0.000 -0.099
  5  0.000 -0.117  0.000 -0.117
tot  0.000 -0.333  0.000 -0.333
  1 -0.000  0.000  0.000  0.000
  2  0.000  0.000  0.000  0.000
  3  0.000 -0.117  0.000 -0.117
  4 -0.000 -0.117  0.000 -0.117
  5 -0.000 -0.099  0.000 -0.099
tot -0.000 -0.333  0.000 -0.333

band  30 # energy   -0.58064751 # occ.  1.00000000

ion      s      p      d    tot
  1  0.000  0.000  0.000  0.000
  2  0.000  0.002  0.000  0.002
  3  0.000  0.193  0.000  0.193
  4  0.000  0.193  0.000  0.193
  5  0.000  0.193  0.000  0.193
tot  0.000  0.581  0.000  0.581
  1  0.000 -0.000 -0.000 -0.000
  2  0.000 -0.001  0.000 -0.001
  3 -0.000 -0.092  0.000 -0.092
  4  0.000 -0.119  0.000 -0.119
  5  0.000 -0.119  0.000 -0.119
tot  0.000 -0.330  0.000 -0.330
  1  0.000 -0.000  0.000 -0.000
  2  0.000 -0.001 -0.000 -0.001
  3  0.000 -0.119  0.000 -0.119
  4 -0.000 -0.092 -0.000 -0.092
  5 -0.000 -0.119 -0.000 -0.119
tot  0.000 -0.330  0.000 -0.330
  1  0.000 -0.000 -0.000 -0.000
  2  0.000 -0.001 -0.000 -0.001
  3  0.000 -0.119  0.000 -0.119
  4  0.000 -0.119  0.000 -0.119
  5 -0.000 -0.092 -0.000 -0.092
tot  0.000 -0.330 -0.000 -0.330

band  31 # energy   -0.57785365 # occ.  1.00000000

ion      s      p      d    tot
  1  0.000  0.009  0.000  0.009
  2  0.000  0.010  0.000  0.010
  3  0.000  0.199  0.000  0.199
  4  0.000  0.199  0.000  0.199
  5  0.000  0.199  0.000  0.199
tot  0.000  0.615  0.000  0.615
  1 -0.000 -0.005  0.000 -0.005
  2 -0.000 -0.004  0.000 -0.004
  3  0.000 -0.083  0.000 -0.083
  4  0.000 -0.117  0.000 -0.117
  5  0.000 -0.117  0.000 -0.117
tot  0.000 -0.326  0.000 -0.326
  1  0.000 -0.005  0.000 -0.005
  2 -0.000 -0.004 -0.000 -0.004
  3  0.000 -0.117 -0.000 -0.117
  4 -0.000 -0.083  0.000 -0.083
  5 -0.000 -0.117  0.000 -0.117
tot -0.000 -0.326  0.000 -0.326
  1  0.000 -0.005  0.000 -0.005
  2  0.000 -0.004  0.000 -0.004
  3 -0.000 -0.117  0.000 -0.117
  4  0.000 -0.117 -0.000 -0.117
  5 -0.000 -0.083  0.000 -0.083
tot -0.000 -0.326  0.000 -0.326

band  32 # energy   -0.50453196 # occ.  1.00000000

ion      s      p      d    tot
  1  0.000  0.000  0.000  0.000
  2  0.000  0.000  0.000  0.000
  3  0.000  0.192  0.000  0.192
  4  0.000  0.192  0.000  0.192
  5  0.000  0.192  0.000  0.192
tot  0.000  0.577  0.000  0.577
  1 -0.000 -0.000  0.000 -0.000
  2 -0.000  0.000  0.000  0.000
  3 -0.000 -0.134  0.000 -0.134
  4  0.000 -0.097  0.000 -0.097
  5  0.000 -0.097  0.000 -0.097
tot  0.000 -0.328  0.000 -0.328
  1 -0.000 -0.000  0.000 -0.000
  2  0.000  0.000  0.000  0.000
  3  0.000 -0.097  0.000 -0.097
  4  0.000 -0.134  0.000 -0.134
  5 -0.000 -0.097  0.000 -0.097
tot -0.000 -0.328  0.000 -0.328
  1  0.000 -0.000  0.000 -0.000
  2  0.000  0.000  0.000  0.000
  3  0.000 -0.097  0.000 -0.097
  4 -0.000 -0.097  0.000 -0.097
  5 -0.000 -0.134  0.000 -0.134
tot -0.000 -0.328  0.000 -0.328

band  33 # energy   -0.41640513 # occ.  1.00000000

ion      s      p      d    tot
  1  0.000  0.011  0.000  0.011
  2  0.000  0.010  0.000  0.010
  3  0.000  0.198  0.000  0.198
  4  0.000  0.198  0.000  0.198
  5  0.000  0.198  0.000  0.198
tot  0.000  0.615  0.000  0.615
  1  0.000 -0.006 -0.000 -0.006
  2  0.000 -0.005  0.000 -0.005
  3  0.000 -0.120 -0.000 -0.120
  4 -0.000 -0.103  0.000 -0.103
  5 -0.000 -0.103 -0.000 -0.103
tot -0.000 -0.337 -0.000 -0.337
  1 -0.000 -0.006  0.000 -0.006
  2 -0.000 -0.005  0.000 -0.005
  3 -0.000 -0.103  0.000 -0.103
  4  0.000 -0.120  0.000 -0.120
  5  0.000 -0.103 -0.000 -0.103
tot -0.000 -0.337  0.000 -0.337
  1  0.000 -0.006  0.000 -0.006
  2  0.000 -0.005  0.000 -0.005
  3 -0.000 -0.103  0.000 -0.103
  4 -0.000 -0.103  0.000 -0.103
  5  0.000 -0.120 -0.000 -0.120
tot  0.000 -0.337  0.000 -0.337

band  34 # energy   -0.28831542 # occ.  1.00000000

ion      s      p      d    tot
  1  0.000  0.011  0.000  0.011
  2  0.000  0.012  0.000  0.012
  3  0.000  0.198  0.000  0.198
  4  0.000  0.198  0.000  0.198
  5  0.000  0.198  0.000  0.198
tot  0.000  0.617  0.000  0.617
  1 -0.000 -0.007  0.000 -0.007
  2 -0.000 -0.007  0.000 -0.007
  3  0.000 -0.119  0.000 -0.119
  4  0.000 -0.112  0.000 -0.112
  5  0.000 -0.112  0.000 -0.112
tot  0.000 -0.356  0.000 -0.356
  1  0.000 -0.007  0.000 -0.007
  2 -0.000 -0.007 -0.000 -0.007
  3  0.000 -0.112  0.000 -0.112
  4  0.000 -0.119  0.000 -0.119
  5  0.000 -0.112  0.000 -0.112
tot  0.000 -0.356  0.000 -0.356
  1  0.000 -0.007  0.000 -0.007
  2  0.000 -0.007 -0.000 -0.007
  3  0.000 -0.112  0.000 -0.112
  4  0.000 -0.112  0.000 -0.112
  5  0.000 -0.119 -0.000 -0.119
tot  0.000 -0.356  0.000 -0.356

band  35 # energy    3.51506224 # occ.  0.00000000

ion      s      p      d    tot
  1  0.049  0.000  0.000  0.049
  2  0.006  0.000  0.000  0.006
  3  0.018  0.000  0.003  0.022
  4  0.018  0.000  0.003  0.022
  5  0.018  0.000  0.003  0.022
tot  0.110  0.000  0.010  0.121
  1  0.029 -0.000  0.000  0.029
  2  0.004  0.000  0.000  0.004
  3  0.011  0.000  0.002  0.013
  4  0.011 -0.000  0.002  0.013
  5  0.011 -0.000  0.002  0.013
tot  0.064  0.000  0.006  0.070
  1  0.029 -0.000  0.000  0.029
  2  0.004  0.000  0.000  0.004
  3  0.011  0.000  0.002  0.013
  4  0.011 -0.000  0.002  0.013
  5  0.011  0.000  0.002  0.013
tot  0.064  0.000  0.006  0.070
  1  0.029  0.000  0.000  0.029
  2  0.004  0.000  0.000  0.004
  3  0.011  0.000  0.002  0.013
  4  0.011  0.000  0.002  0.013
  5  0.011  0.000  0.002  0.013