   5   5   1   0
  0.4040059E+02  0.5867493E-09  0.5867493E-09  0.5867493E-09  0.5000000E-15
   1.0000000000000000E-004
  CAR 
 Name                                    
      5.75985131    -22.34291112 1000      1.18413522      1.00000000
    -22.343  0.0000E+00  0.0000E+00
    -22.315  0.0000E+00  0.0000E+00
    -22.287  0.0000E+00  0.0000E+00
    -22.259  0.0000E+00  0.0000E+00
    -22.230  0.0000E+00  0.0000E+00
    -22.202  0.0000E+00  0.0000E+00
    -22.174  0.0000E+00  0.0000E+00
    -22.146  0.0000E+00  0.0000E+00
    -22.118  0.0000E+00  0.0000E+00
    -22.090  0.0000E+00  0.0000E+00
    -22.062  0.0000E+00  0.0000E+00
    -22.033  0.0000E+00  0.0000E+00
    -22.005  0.0000E+00  0.0000E+00
    -21.977  0.0000E+00  0.0000E+00
    -21.949  0.0000E+00  0.0000E+00
    -21.921  0.0000E+00  0.0000E+00
    -21.893  0.0000E+00  0.0000E+00
    -21.865  0.0000E+00  0.0000E+00
    -21.837  0.0000E+00  0.0000E+00
    -21.808  0.0000E+00  0.0000E+00
    -21.780  0.0000E+00  0.0000E+00
    -21.752  0.0000E+00  0.0000E+00
    -21.724  0.0000E+00  0.0000E+00
    -21.696  0.0000E+00  0.0000E+00
    -21.668  0.0000E+00  0.0000E+00
    -21.640  0.0000E+00  0.0000E+00
    -21.612  0.0000E+00  0.0000E+00
    -21.583  0.0000E+00  0.0000E+00
    -21.555  0.0000E+00  0.0000E+00
    -21.527  0.0000E+00  0.0000E+00
    -21.499  0.0000E+00  0.0000E+00
    -21.471  0.0000E+00  0.0000E+00
    -21.443  0.0000E+00  0.0000E+00
    -21.415  0.0000E+00  0.0000E+00
    -21.386  0.0000E+00  0.0000E+00
    -21.358  0.1973E-14  0.5551E-16
    -21.330  0.8521E-12  0.2403E-13
    -21.302  0.2774E-09  0.7828E-11
    -21.274  0.4847E-07  0.1371E-08
    -21.246  0.4559E-05  0.1296E-06
    -21.218  0.2314E-03  0.6638E-05
    -21.190  0.6353E-02  0.1854E-03
    -21.161  0.9468E-01  0.2849E-02
    -21.133  0.7682E+00  0.2446E-01
    -21.105  0.3404E+01  0.1202E+00
    -21.077  0.8259E+01  0.3525E+00
    -21.049  0.1099E+02  0.6616E+00
    -21.021  0.8022E+01  0.8873E+00
    -20.993  0.3212E+01  0.9777E+00
    -20.964  0.7040E+00  0.9975E+00
    -20.936  0.8424E-01  0.9998E+00
    -20.908  0.5488E-02  0.1000E+01
    -20.880  0.1940E-03  0.1000E+01
    -20.852  0.3709E-05  0.1000E+01
    -20.824  0.3826E-07  0.1000E+01
    -20.796  0.2124E-09  0.1000E+01
    -20.768  0.6342E-12  0.1000E+01
    -20.739  0.0000E+00  0.1000E+01
    -20.711  0.0000E+00  0.1000E+01
    -20.683  0.0000E+00  0.1000E+01
    -20.655  0.0000E+00  0.1000E+01
    -20.627  0.0000E+00  0.1000E+01
    -20.599  0.0000E+00  0.1000E+01
    -20.571  0.0000E+00  0.1000E+01
    -20.543  0.0000E+00  0.1000E+01
    -20.514  0.0000E+00  0.1000E+01
    -20.486  0.0000E+00  0.1000E+01
    -20.458  0.0000E+00  0.1000E+01
    -20.430  0.0000E+00  0.1000E+01
    -20.402  0.0000E+00  0.1000E+01
    -20.374  0.0000E+00  0.1000E+01
    -20.346  0.0000E+00  0.1000E+01
    -20.317  0.0000E+00  0.1000E+01
    -20.289  0.0000E+00  0.1000E+01
    -20.261  0.2457E-13  0.1000E+01
    -20.233  0.1135E-10  0.1000E+01
    -20.205  0.2818E-08  0.1000E+01
    -20.177  0.3760E-06  0.1000E+01
    -20.149  0.2704E-04  0.1000E+01
    -20.121  0.1050E-02  0.1000E+01
    -20.092  0.2211E-01  0.1001E+01
    -20.064  0.2530E+00  0.1008E+01
    -20.036  0.1578E+01  0.1052E+01
    -20.008  0.5383E+01  0.1204E+01
    -19.980  0.1006E+02  0.1487E+01
    -19.952  0.1032E+02  0.1777E+01
    -19.924  0.5807E+01  0.1940E+01
    -19.896  0.1791E+01  0.1991E+01
    -19.867  0.3021E+00  0.1999E+01
    -19.839  0.2779E-01  0.2000E+01
    -19.811  0.1390E-02  0.2000E+01
    -19.783  0.3766E-04  0.2000E+01
    -19.755  0.5514E-06  0.2000E+01
    -19.727  0.4351E-08  0.2000E+01
    -19.699  0.1846E-10  0.2000E+01
    -19.670  0.4144E-13  0.2000E+01
    -19.642  0.0000E+00  0.2000E+01
    -19.614  0.0000E+00  0.2000E+01
    -19.586  0.0000E+00  0.2000E+01
    -19.558  0.0000E+00  0.2000E+01
    -19.530  0.0000E+00  0.2000E+01
    -19.502  0.0000E+00  0.2000E+01
    -19.474  0.0000E+00  0.2000E+01
    -19.445  0.0000E+00  0.2000E+01
    -19.417  0.0000E+00  0.2000E+01
    -19.389  0.0000E+00  0.2000E+01
    -19.361  0.0000E+00  0.2000E+01
    -19.333  0.0000E+00  0.2000E+01
    -19.305  0.0000E+00  0.2000E+01
    -19.277  0.0000E+00  0.2000E+01
    -19.249  0.0000E+00  0.2000E+01
    -19.220  0.0000E+00  0.2000E+01
    -19.192  0.0000E+00  0.2000E+01
    -19.164  0.0000E+00  0.2000E+01
    -19.136  0.0000E+00  0.2000E+01
    -19.108  0.0000E+00  0.2000E+01
    -19.080  0.0000E+00  0.2000E+01
    -19.052  0.0000E+00  0.2000E+01
    -19.023  0.0000E+00  0.2000E+01
    -18.995  0.0000E+00  0.2000E+01
    -18.967  0.0000E+00  0.2000E+01
    -18.939  0.0000E+00  0.2000E+01
    -18.911  0.0000E+00  0.2000E+01
    -18.883  0.0000E+00  0.2000E+01
    -18.855  0.0000E+00  0.2000E+01
    -18.827  0.0000E+00  0.2000E+01
    -18.798  0.0000E+00  0.2000E+01
    -18.770  0.0000E+00  0.2000E+01
    -18.742  0.0000E+00  0.2000E+01
    -18.714  0.0000E+00  0.2000E+01
    -18.686  0.0000E+00  0.2000E+01
    -18.658  0.0000E+00  0.2000E+01
    -18.630  0.0000E+00  0.2000E+01
    -18.602  0.0000E+00  0.2000E+01
    -18.573  0.0000E+00  0.2000E+01
    -18.545  0.0000E+00  0.2000E+01
    -18.517  0.0000E+00  0.2000E+01
    -18.489  0.0000E+00  0.2000E+01
    -18.461  0.0000E+00  0.2000E+01
    -18.433  0.0000E+00  0.2000E+01
    -18.405  0.0000E+00  0.2000E+01
    -18.376  0.0000E+00  0.2000E+01
    -18.348  0.0000E+00  0.2000E+01
    -18.320  0.0000E+00  0.2000E+01
    -18.292  0.0000E+00  0.2000E+01
    -18.264  0.0000E+00  0.2000E+01
    -18.236  0.0000E+00  0.2000E+01
    -18.208  0.0000E+00  0.2000E+01
    -18.180  0.0000E+00  0.2000E+01
    -18.151  0.0000E+00  0.2000E+01
    -18.123  0.0000E+00  0.2000E+01
    -18.095  0.0000E+00  0.2000E+01
    -18.067  0.0000E+00  0.2000E+01
    -18.039  0.0000E+00  0.2000E+01
    -18.011  0.0000E+00  0.2000E+01
    -17.983  0.0000E+00  0.2000E+01
    -17.954  0.0000E+00  0.2000E+01
    -17.926  0.0000E+00  0.2000E+01
    -17.898  0.0000E+00  0.2000E+01
    -17.870  0.0000E+00  0.2000E+01
    -17.842  0.0000E+00  0.2000E+01
    -17.814  0.0000E+00  0.2000E+01
    -17.786  0.0000E+00  0.2000E+01
    -17.758  0.0000E+00  0.2000E+01
    -17.729  0.0000E+00  0.2000E+01
    -17.701  0.0000E+00  0.2000E+01
    -17.673  0.0000E+00  0.2000E+01
    -17.645  0.0000E+00  0.2000E+01
    -17.617  0.0000E+00  0.2000E+01
    -17.589  0.0000E+00  0.2000E+01
    -17.561  0.0000E+00  0.2000E+01
    -17.533  0.0000E+00  0.2000E+01
    -17.504  0.0000E+00  0.2000E+01
    -17.476  0.0000E+00  0.2000E+01
    -17.448  0.0000E+00  0.2000E+01
    -17.420  0.0000E+00  0.2000E+01
    -17.392  0.0000E+00  0.2000E+01
    -17.364  0.0000E+00  0.2000E+01
    -17.336  0.0000E+00  0.2000E+01
    -17.307  0.0000E+00  0.2000E+01
    -17.279  0.0000E+00  0.2000E+01
    -17.251  0.0000E+00  0.2000E+01
    -17.223  0.0000E+00  0.2000E+01
    -17.195  0.0000E+00  0.2000E+01
    -17.167  0.0000E+00  0.2000E+01
    -17.139  0.0000E+00  0.2000E+01
    -17.111  0.0000E+00  0.2000E+01
    -17.082  0.0000E+00  0.2000E+01
    -17.054  0.0000E+00  0.2000E+01
    -17.026  0.0000E+00  0.2000E+01
    -16.998  0.0000E+00  0.2000E+01
    -16.970  0.0000E+00  0.2000E+01
    -16.942  0.0000E+00  0.2000E+01
    -16.914  0.0000E+00  0.2000E+01
    -16.886  0.0000E+00  0.2000E+01
    -16.857  0.0000E+00  0.2000E+01
    -16.829  0.0000E+00  0.2000E+01
    -16.801  0.0000E+00  0.2000E+01
    -16.773  0.0000E+00  0.2000E+01
    -16.745  0.0000E+00  0.2000E+01
    -16.717  0.0000E+00  0.2000E+01
    -16.689  0.0000E+00  0.2000E+01
    -16.660  0.0000E+00  0.2000E+01
    -16.632  0.0000E+00  0.2000E+01
    -16.604  0.0000E+00  0.2000E+01
    -16.576  0.0000E+00  0.2000E+01
    -16.548  0.0000E+00  0.2000E+01
    -16.520  0.0000E+00  0.2000E+01
    -16.492  0.0000E+00  0.2000E+01
    -16.464  0.0000E+00  0.2000E+01
    -16.435  0.0000E+00  0.2000E+01
    -16.407  0.0000E+00  0.2000E+01
    -16.379  0.0000E+00  0.2000E+01
    -16.351  0.0000E+00  0.2000E+01
    -16.323  0.0000E+00  0.2000E+01
    -16.295  0.0000E+00  0.2000E+01
    -16.267  0.0000E+00  0.2000E+01
    -16.239  0.0000E+00  0.2000E+01
    -16.210  0.0000E+00  0.2000E+01
    -16.182  0.0000E+00  0.2000E+01
    -16.154  0.0000E+00  0.2000E+01
    -16.126  0.0000E+00  0.2000E+01
    -16.098  0.0000E+00  0.2000E+01
    -16.070  0.0000E+00  0.2000E+01
    -16.042  0.0000E+00  0.2000E+01
    -16.013  0.0000E+00  0.2000E+01
    -15.985  0.0000E+00  0.2000E+01
    -15.957  0.0000E+00  0.2000E+01
    -15.929  0.0000E+00  0.2000E+01
    -15.901  0.0000E+00  0.2000E+01
    -15.873  0.0000E+00  0.2000E+01
    -15.845  0.0000E+00  0.2000E+01
    -15.817  0.0000E+00  0.2000E+01
    -15.788  0.0000E+00  0.2000E+01
    -15.760  0.0000E+00  0.2000E+01
    -15.732  0.0000E+00  0.2000E+01
    -15.704  0.0000E+00  0.2000E+01
    -15.676  0.0000E+00  0.2000E+01
    -15.648  0.0000E+00  0.2000E+01
    -15.620  0.0000E+00  0.2000E+01
    -15.591  0.0000E+00  0.2000E+01
    -15.563  0.0000E+00  0.2000E+01
    -15.535  0.0000E+00  0.2000E+01
    -15.507  0.0000E+00  0.2000E+01
    -15.479  0.0000E+00  0.2000E+01
    -15.451  0.0000E+00  0.2000E+01
    -15.423  0.0000E+00  0.2000E+01
    -15.395  0.0000E+00  0.2000E+01
    -15.366  0.0000E+00  0.2000E+01
    -15.338  0.0000E+00  0.2000E+01
    -15.310  0.0000E+00  0.2000E+01
    -15.282  0.0000E+00  0.2000E+01
    -15.254  0.0000E+00  0.2000E+01
    -15.226  0.0000E+00  0.2000E+01
    -15.198  0.0000E+00  0.2000E+01
    -15.170  0.0000E+00  0.2000E+01
    -15.141  0.0000E+00  0.2000E+01
    -15.113  0.0000E+00  0.2000E+01
    -15.085  0.0000E+00  0.2000E+01
    -15.057  0.0000E+00  0.2000E+01
    -15.029  0.0000E+00  0.2000E+01
    -15.001  0.0000E+00  0.2000E+01
    -14.973  0.0000E+00  0.2000E+01
    -14.944  0.0000E+00  0.2000E+01
    -14.916  0.0000E+00  0.2000E+01
    -14.888  0.0000E+00  0.2000E+01
    -14.860  0.0000E+00  0.2000E+01
    -14.832  0.0000E+00  0.2000E+01
    -14.804  0.1579E-14  0.2000E+01
    -14.776  0.7655E-12  0.2000E+01
    -14.748  0.1916E-09  0.2000E+01
    -14.719  0.2592E-07  0.2000E+01
    -14.691  0.1902E-05  0.2000E+01
    -14.663  0.7604E-04  0.2000E+01
    -14.635  0.1664E-02  0.2000E+01
    -14.607  0.2008E-01  0.2001E+01
    -14.579  0.1350E+00  0.2004E+01
    -14.551  0.5135E+00  0.2019E+01
    -14.523  0.1139E+01  0.2051E+01
    -14.494  0.1555E+01  0.2095E+01
    -14.466  0.1466E+01  0.2136E+01
    -14.438  0.1164E+01  0.2169E+01
    -14.410  0.9401E+00  0.2195E+01
    -14.382  0.8339E+00  0.2218E+01
    -14.354  0.7776E+00  0.2240E+01
    -14.326  0.7406E+00  0.2261E+01
    -14.297  0.7461E+00  0.2282E+01
    -14.269  0.7545E+00  0.2303E+01
    -14.241  0.8971E+00  0.2329E+01
    -14.213  0.1784E+01  0.2379E+01
    -14.185  0.5255E+01  0.2527E+01
    -14.157  0.1281E+02  0.2887E+01
    -14.129  0.1998E+02  0.3449E+01
    -14.101  0.1901E+02  0.3984E+01
    -14.072  0.1163E+02  0.4311E+01
    -14.044  0.5842E+01  0.4476E+01
    -14.016  0.3939E+01  0.4586E+01
    -13.988  0.4005E+01  0.4699E+01
    -13.960  0.4304E+01  0.4820E+01
    -13.932  0.3612E+01  0.4922E+01
    -13.904  0.1987E+01  0.4978E+01
    -13.876  0.6562E+00  0.4996E+01
    -13.847  0.1247E+00  0.5000E+01
    -13.819  0.1332E-01  0.5000E+01
    -13.791  0.7899E-03  0.5000E+01
    -13.763  0.2573E-04  0.5000E+01
    -13.735  0.4577E-06  0.5000E+01
    -13.707  0.4422E-08  0.5000E+01
    -13.679  0.2311E-10  0.5000E+01
    -13.650  0.6512E-13  0.5000E+01
    -13.622  0.0000E+00  0.5000E+01
    -13.594  0.0000E+00  0.5000E+01
    -13.566  0.0000E+00  0.5000E+01
    -13.538  0.0000E+00  0.5000E+01
    -13.510  0.0000E+00  0.5000E+01
    -13.482  0.0000E+00  0.5000E+01
    -13.454  0.1135E-13  0.5000E+01
    -13.425  0.4346E-11  0.5000E+01
    -13.397  0.9011E-09  0.5000E+01
    -13.369  0.1011E-06  0.5000E+01
    -13.341  0.6160E-05  0.5000E+01
    -13.313  0.2048E-03  0.5000E+01
    -13.285  0.3734E-02  0.5000E+01
    -13.257  0.3764E-01  0.5001E+01
    -13.229  0.2122E+00  0.5007E+01
    -13.200  0.6818E+00  0.5026E+01
    -13.172  0.1293E+01  0.5063E+01
    -13.144  0.1549E+01  0.5106E+01
    -13.116  0.1349E+01  0.5144E+01
    -13.088  0.1058E+01  0.5174E+01
    -13.060  0.8709E+00  0.5198E+01
    -13.032  0.7889E+00  0.5221E+01
    -13.003  0.7385E+00  0.5241E+01
    -12.975  0.7011E+00  0.5261E+01
    -12.947  0.7122E+00  0.5281E+01
    -12.919  0.7091E+00  0.5301E+01
    -12.891  0.7861E+00  0.5323E+01
    -12.863  0.1312E+01  0.5360E+01
    -12.835  0.3596E+01  0.5461E+01
    -12.807  0.9680E+01  0.5734E+01
    -12.778  0.1776E+02  0.6233E+01
    -12.750  0.2023E+02  0.6802E+01
    -12.722  0.1442E+02  0.7208E+01
    -12.694  0.7431E+01  0.7417E+01
    -12.666  0.4199E+01  0.7535E+01
    -12.638  0.3704E+01  0.7639E+01
    -12.610  0.4110E+01  0.7755E+01
    -12.581  0.4101E+01  0.7870E+01
    -12.553  0.2916E+01  0.7952E+01
    -12.525  0.1297E+01  0.7989E+01
    -12.497  0.3388E+00  0.7998E+01
    -12.469  0.5033E-01  0.8000E+01
    -12.441  0.4175E-02  0.8000E+01
    -12.413  0.1913E-03  0.8000E+01
    -12.385  0.4802E-05  0.8000E+01
    -12.356  0.6564E-07  0.8000E+01
    -12.328  0.4864E-09  0.8000E+01
    -12.300  0.1948E-11  0.8000E+01
    -12.272  0.3947E-14  0.8000E+01
    -12.244  0.0000E+00  0.8000E+01
    -12.216  0.0000E+00  0.8000E+01
    -12.188  0.0000E+00  0.8000E+01
    -12.160  0.0000E+00  0.8000E+01
    -12.131  0.0000E+00  0.8000E+01
    -12.103  0.0000E+00  0.8000E+01
    -12.075  0.0000E+00  0.8000E+01
    -12.047  0.0000E+00  0.8000E+01
    -12.019  0.0000E+00  0.8000E+01
    -11.991  0.0000E+00  0.8000E+01
    -11.963  0.0000E+00  0.8000E+01
    -11.934  0.0000E+00  0.8000E+01
    -11.906  0.0000E+00  0.8000E+01
    -11.878  0.0000E+00  0.8000E+01
    -11.850  0.0000E+00  0.8000E+01
    -11.822  0.0000E+00  0.8000E+01
    -11.794  0.0000E+00  0.8000E+01
    -11.766  0.0000E+00  0.8000E+01
    -11.738  0.0000E+00  0.8000E+01
    -11.709  0.0000E+00  0.8000E+01
    -11.681  0.0000E+00  0.8000E+01
    -11.653  0.0000E+00  0.8000E+01
    -11.625  0.0000E+00  0.8000E+01
    -11.597  0.0000E+00  0.8000E+01
    -11.569  0.0000E+00  0.8000E+01
    -11.541  0.0000E+00  0.8000E+01
    -11.513  0.0000E+00  0.8000E+01
    -11.484  0.0000E+00  0.8000E+01
    -11.456  0.0000E+00  0.8000E+01
    -11.428  0.0000E+00  0.8000E+01
    -11.400  0.0000E+00  0.8000E+01
    -11.372  0.0000E+00  0.8000E+01
    -11.344  0.0000E+00  0.8000E+01
    -11.316  0.0000E+00  0.8000E+01
    -11.287  0.0000E+00  0.8000E+01
    -11.259  0.0000E+00  0.8000E+01
    -11.231  0.0000E+00  0.8000E+01
    -11.203  0.0000E+00  0.8000E+01
    -11.175  0.0000E+00  0.8000E+01
    -11.147  0.0000E+00  0.8000E+01
    -11.119  0.0000E+00  0.8000E+01
    -11.091  0.0000E+00  0.8000E+01
    -11.062  0.0000E+00  0.8000E+01
    -11.034  0.0000E+00  0.8000E+01
    -11.006  0.0000E+00  0.8000E+01
    -10.978  0.0000E+00  0.8000E+01
    -10.950  0.0000E+00  0.8000E+01
    -10.922  0.0000E+00  0.8000E+01
    -10.894  0.0000E+00  0.8000E+01
    -10.866  0.0000E+00  0.8000E+01
    -10.837  0.0000E+00  0.8000E+01
    -10.809  0.0000E+00  0.8000E+01
    -10.781  0.0000E+00  0.8000E+01
    -10.753  0.0000E+00  0.8000E+01
    -10.725  0.0000E+00  0.8000E+01
    -10.697  0.0000E+00  0.8000E+01
    -10.669  0.0000E+00  0.8000E+01
    -10.640  0.0000E+00  0.8000E+01
    -10.612  0.0000E+00  0.8000E+01
    -10.584  0.0000E+00  0.8000E+01
    -10.556  0.0000E+00  0.8000E+01
    -10.528  0.0000E+00  0.8000E+01
    -10.500  0.0000E+00  0.8000E+01
    -10.472  0.0000E+00  0.8000E+01
    -10.444  0.0000E+00  0.8000E+01
    -10.415  0.0000E+00  0.8000E+01
    -10.387  0.0000E+00  0.8000E+01
    -10.359  0.0000E+00  0.8000E+01
    -10.331  0.0000E+00  0.8000E+01
    -10.303  0.0000E+00  0.8000E+01
    -10.275  0.0000E+00  0.8000E+01
    -10.247  0.0000E+00  0.8000E+01
    -10.218  0.0000E+00  0.8000E+01
    -10.190  0.0000E+00  0.8000E+01
    -10.162  0.0000E+00  0.8000E+01
    -10.134  0.0000E+00  0.8000E+01
    -10.106  0.0000E+00  0.8000E+01
    -10.078  0.0000E+00  0.8000E+01
    -10.050  0.0000E+00  0.8000E+01
    -10.022  0.0000E+00  0.8000E+01
     -9.993  0.0000E+00  0.8000E+01
     -9.965  0.0000E+00  0.8000E+01
     -9.937  0.0000E+00  0.8000E+01
     -9.909  0.0000E+00  0.8000E+01
     -9.881  0.0000E+00  0.8000E+01
     -9.853  0.0000E+00  0.8000E+01
     -9.825  0.0000E+00  0.8000E+01
     -9.797  0.0000E+00  0.8000E+01
     -9.768  0.0000E+00  0.8000E+01
     -9.740  0.0000E+00  0.8000E+01
     -9.712  0.0000E+00  0.8000E+01
     -9.684  0.0000E+00  0.8000E+01
     -9.656  0.0000E+00  0.8000E+01
     -9.628  0.0000E+00  0.8000E+01
     -9.600  0.0000E+00  0.8000E+01
     -9.571  0.0000E+00  0.8000E+01
     -9.543  0.0000E+00  0.8000E+01
     -9.515  0.0000E+00  0.8000E+01
     -9.487  0.0000E+00  0.8000E+01
     -9.459  0.0000E+00  0.8000E+01
     -9.431  0.0000E+00  0.8000E+01
     -9.403  0.0000E+00  0.8000E+01
     -9.375  0.0000E+00  0.8000E+01
     -9.346  0.0000E+00  0.8000E+01
     -9.318  0.0000E+00  0.8000E+01
     -9.290  0.0000E+00  0.8000E+01
     -9.262  0.0000E+00  0.8000E+01
     -9.234  0.0000E+00  0.8000E+01
     -9.206  0.0000E+00  0.8000E+01
     -9.178  0.0000E+00  0.8000E+01
     -9.150  0.0000E+00  0.8000E+01
     -9.121  0.0000E+00  0.8000E+01
     -9.093  0.0000E+00  0.8000E+01
     -9.065  0.0000E+00  0.8000E+01
     -9.037  0.0000E+00  0.8000E+01
     -9.009  0.0000E+00  0.8000E+01
     -8.981  0.1973E-15  0.8000E+01
     -8.953  0.1499E-12  0.8000E+01
     -8.924  0.4648E-10  0.8000E+01
     -8.896  0.7767E-08  0.8000E+01
     -8.868  0.7010E-06  0.8000E+01
     -8.840  0.3432E-04  0.8000E+01
     -8.812  0.9160E-03  0.8000E+01
     -8.784  0.1344E-01  0.8000E+01
     -8.756  0.1101E+00  0.8004E+01
     -8.728  0.5235E+00  0.8018E+01
     -8.699  0.1598E+01  0.8063E+01
     -8.671  0.3766E+01  0.8169E+01
     -8.643  0.7565E+01  0.8382E+01
     -8.615  0.1141E+02  0.8703E+01
     -8.587  0.1118E+02  0.9018E+01
     -8.559  0.6858E+01  0.9211E+01
     -8.531  0.2972E+01  0.9294E+01
     -8.503  0.1432E+01  0.9334E+01
     -8.474  0.1051E+01  0.9364E+01
     -8.446  0.7997E+00  0.9387E+01
     -8.418  0.7406E+00  0.9407E+01
     -8.390  0.1892E+01  0.9461E+01
     -8.362  0.5379E+01  0.9612E+01
     -8.334  0.9871E+01  0.9890E+01
     -8.306  0.1107E+02  0.1020E+02
     -8.277  0.7639E+01  0.1042E+02
     -8.249  0.3413E+01  0.1051E+02
     -8.221  0.1188E+01  0.1055E+02
     -8.193  0.6158E+00  0.1056E+02
     -8.165  0.6896E+00  0.1058E+02
     -8.137  0.8666E+00  0.1061E+02
     -8.109  0.1079E+01  0.1064E+02
     -8.081  0.1188E+01  0.1067E+02
     -8.052  0.1043E+01  0.1070E+02
     -8.024  0.8259E+00  0.1072E+02
     -7.996  0.5832E+00  0.1074E+02
     -7.968  0.2871E+00  0.1075E+02
     -7.940  0.8344E-01  0.1075E+02
     -7.912  0.1352E-01  0.1075E+02
     -7.884  0.1201E-02  0.1075E+02
     -7.856  0.6827E-04  0.1075E+02
     -7.827  0.2902E-03  0.1075E+02
     -7.799  0.4389E-02  0.1075E+02
     -7.771  0.3632E-01  0.1075E+02
     -7.743  0.1641E+00  0.1076E+02
     -7.715  0.4056E+00  0.1077E+02
     -7.687  0.5496E+00  0.1078E+02
     -7.659  0.4086E+00  0.1079E+02
     -7.630  0.1672E+00  0.1080E+02
     -7.602  0.4750E-01  0.1080E+02
     -7.574  0.9374E-01  0.1080E+02
     -7.546  0.4309E+00  0.1081E+02
     -7.518  0.1196E+01  0.1085E+02
     -7.490  0.2007E+01  0.1091E+02
     -7.462  0.2211E+01  0.1097E+02
     -7.434  0.1776E+01  0.1102E+02
     -7.405  0.1288E+01  0.1105E+02
     -7.377  0.1428E+01  0.1109E+02
     -7.349  0.2674E+01  0.1117E+02
     -7.321  0.5503E+01  0.1132E+02
     -7.293  0.9268E+01  0.1158E+02
     -7.265  0.1082E+02  0.1189E+02
     -7.237  0.8140E+01  0.1212E+02
     -7.208  0.3963E+01  0.1223E+02
     -7.180  0.1557E+01  0.1227E+02
     -7.152  0.8950E+00  0.1230E+02
     -7.124  0.8815E+00  0.1232E+02
     -7.096  0.1014E+01  0.1235E+02
     -7.068  0.1021E+01  0.1238E+02
     -7.040  0.9614E+00  0.1241E+02
     -7.012  0.1070E+01  0.1244E+02
     -6.983  0.1185E+01  0.1247E+02
     -6.955  0.1138E+01  0.1250E+02
     -6.927  0.1171E+01  0.1254E+02
     -6.899  0.1343E+01  0.1257E+02
     -6.871  0.1901E+01  0.1263E+02
     -6.843  0.3914E+01  0.1274E+02
     -6.815  0.7448E+01  0.1295E+02
     -6.787  0.9978E+01  0.1323E+02
     -6.758  0.8924E+01  0.1348E+02
     -6.730  0.5245E+01  0.1363E+02
     -6.702  0.2064E+01  0.1368E+02
     -6.674  0.7027E+00  0.1370E+02
     -6.646  0.5315E+00  0.1372E+02
     -6.618  0.7369E+00  0.1374E+02
     -6.590  0.1406E+01  0.1378E+02
     -6.561  0.3588E+01  0.1388E+02
     -6.533  0.7236E+01  0.1408E+02
     -6.505  0.9743E+01  0.1436E+02
     -6.477  0.8636E+01  0.1460E+02
     -6.449  0.4936E+01  0.1474E+02
     -6.421  0.1789E+01  0.1479E+02
     -6.393  0.6971E+00  0.1481E+02
     -6.365  0.1635E+01  0.1485E+02
     -6.336  0.4635E+01  0.1499E+02
     -6.308  0.8369E+01  0.1522E+02
     -6.280  0.9604E+01  0.1549E+02
     -6.252  0.6989E+01  0.1569E+02
     -6.224  0.3236E+01  0.1578E+02
     -6.196  0.1192E+01  0.1581E+02
     -6.168  0.6696E+00  0.1583E+02
     -6.140  0.4421E+00  0.1584E+02
     -6.111  0.1871E+00  0.1585E+02
     -6.083  0.4416E-01  0.1585E+02
     -6.055  0.5703E-02  0.1585E+02
     -6.027  0.4014E-03  0.1585E+02
     -5.999  0.3672E-04  0.1585E+02
     -5.971  0.5299E-03  0.1585E+02
     -5.943  0.7108E-02  0.1585E+02
     -5.914  0.5195E-01  0.1585E+02
     -5.886  0.2074E+00  0.1586E+02
     -5.858  0.4533E+00  0.1587E+02
     -5.830  0.5432E+00  0.1589E+02
     -5.802  0.3571E+00  0.1590E+02
     -5.774  0.1286E+00  0.1590E+02
     -5.746  0.2537E-01  0.1590E+02
     -5.718  0.3099E-02  0.1590E+02
     -5.689  0.5545E-02  0.1590E+02
     -5.661  0.4232E-01  0.1590E+02
     -5.633  0.1816E+00  0.1591E+02
     -5.605  0.4273E+00  0.1592E+02
     -5.577  0.5617E+00  0.1593E+02
     -5.549  0.4684E+00  0.1595E+02
     -5.521  0.4235E+00  0.1596E+02
     -5.493  0.5378E+00  0.1597E+02
     -5.464  0.5173E+00  0.1599E+02
     -5.436  0.2861E+00  0.1600E+02
     -5.408  0.8717E-01  0.1600E+02
     -5.380  0.1453E-01  0.1600E+02
     -5.352  0.1320E-02  0.1600E+02
     -5.324  0.6517E-04  0.1600E+02
     -5.296  0.1743E-05  0.1600E+02
     -5.267  0.2517E-07  0.1600E+02
     -5.239  0.1958E-09  0.1600E+02
     -5.211  0.8185E-12  0.1600E+02
     -5.183  0.1973E-14  0.1600E+02
     -5.155  0.0000E+00  0.1600E+02
     -5.127  0.0000E+00  0.1600E+02
     -5.099  0.0000E+00  0.1600E+02
     -5.071  0.0000E+00  0.1600E+02
     -5.042  0.0000E+00  0.1600E+02
     -5.014  0.0000E+00  0.1600E+02
     -4.986  0.0000E+00  0.1600E+02
     -4.958  0.0000E+00  0.1600E+02
     -4.930  0.0000E+00  0.1600E+02
     -4.902  0.0000E+00  0.1600E+02
     -4.874  0.0000E+00  0.1600E+02
     -4.845  0.0000E+00  0.1600E+02
     -4.817  0.0000E+00  0.1600E+02
     -4.789  0.0000E+00  0.1600E+02
     -4.761  0.0000E+00  0.1600E+02
     -4.733  0.0000E+00  0.1600E+02
     -4.705  0.0000E+00  0.1600E+02
     -4.677  0.0000E+00  0.1600E+02
     -4.649  0.0000E+00  0.1600E+02
     -4.620  0.0000E+00  0.1600E+02
     -4.592  0.0000E+00  0.1600E+02
     -4.564  0.0000E+00  0.1600E+02
     -4.536  0.0000E+00  0.1600E+02
     -4.508  0.1973E-15  0.1600E+02
     -4.480  0.9373E-13  0.1600E+02
     -4.452  0.2818E-10  0.1600E+02
     -4.424  0.4549E-08  0.1600E+02
     -4.395  0.3953E-06  0.1600E+02
     -4.367  0.1854E-04  0.1600E+02
     -4.339  0.4714E-03  0.1600E+02
     -4.311  0.6529E-02  0.1600E+02
     -4.283  0.4976E-01  0.1600E+02
     -4.255  0.2130E+00  0.1601E+02
     -4.227  0.5356E+00  0.1602E+02
     -4.198  0.8687E+00  0.1605E+02
     -4.170  0.1050E+01  0.1608E+02
     -4.142  0.1057E+01  0.1611E+02
     -4.114  0.8852E+00  0.1613E+02
     -4.086  0.6914E+00  0.1615E+02
     -4.058  0.8869E+00  0.1618E+02
     -4.030  0.1514E+01  0.1622E+02
     -4.002  0.1911E+01  0.1627E+02
     -3.973  0.1602E+01  0.1632E+02
     -3.945  0.9808E+00  0.1634E+02
     -3.917  0.7463E+00  0.1637E+02
     -3.889  0.1065E+01  0.1640E+02
     -3.861  0.1535E+01  0.1644E+02
     -3.833  0.1682E+01  0.1649E+02
     -3.805  0.1315E+01  0.1652E+02
     -3.777  0.7172E+00  0.1654E+02
     -3.748  0.4211E+00  0.1656E+02
     -3.720  0.7173E+00  0.1658E+02
     -3.692  0.1327E+01  0.1661E+02
     -3.664  0.1518E+01  0.1666E+02
     -3.636  0.1041E+01  0.1668E+02
     -3.608  0.4463E+00  0.1670E+02
     -3.580  0.2102E+00  0.1670E+02
     -3.551  0.3451E+00  0.1671E+02
     -3.523  0.6114E+00  0.1673E+02
     -3.495  0.7651E+00  0.1675E+02
     -3.467  0.8070E+00  0.1677E+02
     -3.439  0.8052E+00  0.1680E+02
     -3.411  0.7672E+00  0.1682E+02
     -3.383  0.6408E+00  0.1684E+02
     -3.355  0.4392E+00  0.1685E+02
     -3.326  0.4012E+00  0.1686E+02
     -3.298  0.5355E+00  0.1688E+02
     -3.270  0.5287E+00  0.1689E+02
     -3.242  0.4019E+00  0.1690E+02
     -3.214  0.5488E+00  0.1692E+02
     -3.186  0.9773E+00  0.1694E+02
     -3.158  0.1154E+01  0.1698E+02
     -3.130  0.9443E+00  0.1700E+02
     -3.101  0.7372E+00  0.1702E+02
     -3.073  0.5483E+00  0.1704E+02
     -3.045  0.2816E+00  0.1705E+02
     -3.017  0.1142E+00  0.1705E+02
     -2.989  0.1947E+00  0.1706E+02
     -2.961  0.5866E+00  0.1707E+02
     -2.933  0.1169E+01  0.1711E+02
     -2.904  0.1626E+01  0.1715E+02
     -2.876  0.1824E+01  0.1720E+02
     -2.848  0.1896E+01  0.1726E+02
     -2.820  0.2210E+01  0.1732E+02
     -2.792  0.3094E+01  0.1741E+02
     -2.764  0.4323E+01  0.1753E+02
     -2.736  0.5079E+01  0.1767E+02
     -2.708  0.4838E+01  0.1781E+02
     -2.679  0.4545E+01  0.1793E+02
     -2.651  0.5509E+01  0.1809E+02
     -2.623  0.7079E+01  0.1829E+02
     -2.595  0.7762E+01  0.1851E+02
     -2.567  0.7755E+01  0.1872E+02
     -2.539  0.7603E+01  0.1894E+02
     -2.511  0.6751E+01  0.1913E+02
     -2.483  0.5467E+01  0.1928E+02
     -2.454  0.5078E+01  0.1942E+02
     -2.426  0.5428E+01  0.1958E+02
     -2.398  0.5186E+01  0.1972E+02
     -2.370  0.4241E+01  0.1984E+02
     -2.342  0.3541E+01  0.1994E+02
     -2.314  0.3649E+01  0.2004E+02
     -2.286  0.4188E+01  0.2016E+02
     -2.257  0.4189E+01  0.2028E+02
     -2.229  0.3482E+01  0.2038E+02
     -2.201  0.2927E+01  0.2046E+02
     -2.173  0.2965E+01  0.2054E+02
     -2.145  0.3593E+01  0.2065E+02
     -2.117  0.4937E+01  0.2078E+02
     -2.089  0.7070E+01  0.2098E+02
     -2.061  0.8675E+01  0.2123E+02
     -2.032  0.7915E+01  0.2145E+02
     -2.004  0.5951E+01  0.2162E+02
     -1.976  0.5129E+01  0.2176E+02
     -1.948  0.5394E+01  0.2191E+02
     -1.920  0.5441E+01  0.2207E+02
     -1.892  0.5166E+01  0.2221E+02
     -1.864  0.5425E+01  0.2236E+02
     -1.835  0.6207E+01  0.2254E+02
     -1.807  0.6765E+01  0.2273E+02
     -1.779  0.6691E+01  0.2292E+02
     -1.751  0.5903E+01  0.2308E+02
     -1.723  0.4672E+01  0.2321E+02
     -1.695  0.3676E+01  0.2332E+02
     -1.667  0.3225E+01  0.2341E+02
     -1.639  0.3370E+01  0.2350E+02
     -1.610  0.4408E+01  0.2363E+02
     -1.582  0.6320E+01  0.2381E+02
     -1.554  0.8251E+01  0.2404E+02
     -1.526  0.9259E+01  0.2430E+02
     -1.498  0.1001E+02  0.2458E+02
     -1.470  0.1160E+02  0.2491E+02
     -1.442  0.1269E+02  0.2526E+02
     -1.414  0.1137E+02  0.2558E+02
     -1.385  0.8556E+01  0.2582E+02
     -1.357  0.6594E+01  0.2601E+02
     -1.329  0.6297E+01  0.2619E+02
     -1.301  0.6636E+01  0.2637E+02
     -1.273  0.6725E+01  0.2656E+02
     -1.245  0.6684E+01  0.2675E+02
     -1.217  0.6699E+01  0.2694E+02
     -1.188  0.6139E+01  0.2711E+02
     -1.160  0.4830E+01  0.2725E+02
     -1.132  0.3658E+01  0.2735E+02
     -1.104  0.3319E+01  0.2744E+02
     -1.076  0.3393E+01  0.2754E+02
     -1.048  0.3248E+01  0.2763E+02
     -1.020  0.3050E+01  0.2772E+02
     -0.992  0.3012E+01  0.2780E+02
     -0.963  0.3088E+01  0.2789E+02
     -0.935  0.3153E+01  0.2798E+02
     -0.907  0.3045E+01  0.2806E+02
     -0.879  0.2672E+01  0.2814E+02
     -0.851  0.2316E+01  0.2820E+02
     -0.823  0.2447E+01  0.2827E+02
     -0.795  0.3022E+01  0.2836E+02
     -0.767  0.3683E+01  0.2846E+02
     -0.738  0.4352E+01  0.2858E+02
     -0.710  0.5417E+01  0.2873E+02
     -0.682  0.7329E+01  0.2894E+02
     -0.654  0.8737E+01  0.2919E+02
     -0.626  0.7826E+01  0.2941E+02
     -0.598  0.6224E+01  0.2958E+02
     -0.570  0.5991E+01  0.2975E+02
     -0.541  0.6335E+01  0.2993E+02
     -0.513  0.6373E+01  0.3011E+02
     -0.485  0.5877E+01  0.3027E+02
     -0.457  0.4860E+01  0.3041E+02
     -0.429  0.4116E+01  0.3053E+02
     -0.401  0.4257E+01  0.3064E+02
     -0.373  0.4759E+01  0.3078E+02
     -0.345  0.4954E+01  0.3092E+02
     -0.316  0.5087E+01  0.3106E+02
     -0.288  0.5488E+01  0.3122E+02
     -0.260  0.5811E+01  0.3138E+02
     -0.232  0.5852E+01  0.3154E+02
     -0.204  0.5963E+01  0.3171E+02
     -0.176  0.5743E+01  0.3187E+02
     -0.148  0.4705E+01  0.3201E+02
     -0.120  0.3864E+01  0.3211E+02
     -0.091  0.4189E+01  0.3223E+02
     -0.063  0.5374E+01  0.3238E+02
     -0.035  0.6396E+01  0.3256E+02
     -0.007  0.6398E+01  0.3274E+02
      0.021  0.5281E+01  0.3289E+02
      0.049  0.3496E+01  0.3299E+02
      0.077  0.1860E+01  0.3304E+02
      0.106  0.1180E+01  0.3308E+02
      0.134  0.1167E+01  0.3311E+02
      0.162  0.9513E+00  0.3314E+02
      0.190  0.5576E+00  0.3315E+02
      0.218  0.4835E+00  0.3316E+02
      0.246  0.6712E+00  0.3318E+02
      0.274  0.7930E+00  0.3321E+02
      0.302  0.7537E+00  0.3323E+02
      0.331  0.5775E+00  0.3324E+02
      0.359  0.4952E+00  0.3326E+02
      0.387  0.7784E+00  0.3328E+02
      0.415  0.1096E+01  0.3331E+02
      0.443  0.9043E+00  0.3334E+02
      0.471  0.4119E+00  0.3335E+02
      0.499  0.1028E+00  0.3335E+02
      0.528  0.1400E-01  0.3335E+02
      0.556  0.1044E-02  0.3335E+02
      0.584  0.1815E-03  0.3335E+02
      0.612  0.2450E-02  0.3335E+02
      0.640  0.2337E-01  0.3335E+02
      0.668  0.1216E+00  0.3335E+02
      0.696  0.3463E+00  0.3336E+02
      0.724  0.5402E+00  0.3338E+02
      0.753  0.4624E+00  0.3339E+02
      0.781  0.2195E+00  0.3340E+02
      0.809  0.8621E-01  0.3340E+02
      0.837  0.2092E+00  0.3341E+02
      0.865  0.7592E+00  0.3343E+02