 vasp.5.3.3 18Dez12 (build Nov 24 2013 16:08:34) complex                         
 executed on           CrayXC_GNU date 2014.10.24  23:55:39
 running on   72 total cores
 distrk:  each k-point on   72 cores,    1 groups
 distr:  one band on NCORES_PER_BAND=   6 cores,   12 groups


--------------------------------------------------------------------------------------------------------


 INCAR:
 POTCAR:   PAW_PBE Cs_sv 08Apr2002                
 POTCAR:   PAW_PBE Pb 08Apr2002                   
 POTCAR:   PAW_PBE Br 06Sep2000                   
 POTCAR:   PAW_PBE Cs_sv 08Apr2002                
   VRHFIN =Cs: 5s5p6s                                                           
   LEXCH  = PE                                                                  
   EATOM  =   555.6835 eV,   40.8416 Ry                                         
                                                                                
   TITEL  = PAW_PBE Cs_sv 08Apr2002                                             
   LULTRA =        F    use ultrasoft PP ?                                      
   IUNSCR =        1    unscreen: 0-lin 1-nonlin 2-no                           
   RPACOR =    2.200    partial core radius                                     
   POMASS =  132.900; ZVAL   =    9.000    mass and valenz                      
   RCORE  =    2.500    outmost cutoff radius                                   
   RWIGS  =    2.500; RWIGS  =    1.323    wigner-seitz radius (au A)           
   ENMAX  =  220.318; ENMIN  =  165.238 eV                                      
   RCLOC  =    2.207    cutoff for local pot                                    
   LCOR   =        T    correct aug charges                                     
   LPAW   =        T    paw PP                                                  
   EAUG   =  407.933                                                            
   DEXC   =    -.004                                                            
   RMAX   =    3.106    core radius for proj-oper                               
   RAUG   =    1.300    factor for augmentation sphere                          
   RDEP   =    2.590    radius for radial grids                                 
   QCUT   =   -4.024; QGAM   =    8.048    optimization parameters              
                                                                                
   Description                                                                  
     l     E      TYP  RCUT    TYP  RCUT                                        
     0   .000     23  1.900                                                     
     0   .000     23  1.900                                                     
     0   .000     23  1.900                                                     
     0   .000     23  1.900                                                     
     1   .000     23  2.500                                                     
     1  -.200     23  2.500                                                     
     2   .000     23  2.500                                                     
  local pseudopotential read in
  partial core-charges read in
  atomic valenz-charges read in
  non local Contribution for L=           0  read in
    real space projection operators read in
  non local Contribution for L=           0  read in
    real space projection operators read in
  non local Contribution for L=           1  read in
    real space projection operators read in
  non local Contribution for L=           1  read in
    real space projection operators read in
  non local Contribution for L=           2  read in
    real space projection operators read in
    PAW grid and wavefunctions read in

   number of l-projection  operators is LMAX  =           5
   number of lm-projection operators is LMMAX =          13

 POTCAR:   PAW_PBE Pb 08Apr2002                   
   VRHFIN =Pb:                                                                  
   LEXCH  = PE                                                                  
   EATOM  =    96.9868 eV,    7.1283 Ry                                         
                                                                                
   TITEL  = PAW_PBE Pb 08Apr2002                                                
   LULTRA =        F    use ultrasoft PP ?                                      
   IUNSCR =        1    unscreen: 0-lin 1-nonlin 2-no                           
   RPACOR =    2.200    partial core radius                                     
   POMASS =  207.200; ZVAL   =    4.000    mass and valenz                      
   RCORE  =    3.100    outmost cutoff radius                                   
   RWIGS  =    3.260; RWIGS  =    1.725    wigner-seitz radius (au A)           
   ENMAX  =   97.973; ENMIN  =   73.480 eV                                      
   ICORE  =        3    local potential                                         
   LCOR   =        T    correct aug charges                                     
   LPAW   =        T    paw PP                                                  
   EAUG   =  234.873                                                            
   DEXC   =    -.129                                                            
   RMAX   =    4.658    core radius for proj-oper                               
   RAUG   =    1.300    factor for augmentation sphere                          
   RDEP   =    3.202    radius for radial grids                                 
   QCUT   =   -2.683; QGAM   =    5.367    optimization parameters              
                                                                                
   Description                                                                  
     l     E      TYP  RCUT    TYP  RCUT                                        
     0   .000     23  3.100                                                     
     0   .000     23  3.100                                                     
     1   .000     23  3.100                                                     
     1  -.400     23  3.100                                                     
     2  -.100     23  3.100                                                     
     3  -.100     23  3.100                                                     
  local pseudopotential read in
  partial core-charges read in
  atomic valenz-charges read in
  non local Contribution for L=           0  read in
    real space projection operators read in
  non local Contribution for L=           0  read in
    real space projection operators read in
  non local Contribution for L=           1  read in
    real space projection operators read in
  non local Contribution for L=           1  read in
    real space projection operators read in
  non local Contribution for L=           2  read in
    real space projection operators read in
    PAW grid and wavefunctions read in

   number of l-projection  operators is LMAX  =           5
   number of lm-projection operators is LMMAX =          13

 POTCAR:   PAW_PBE Br 06Sep2000                   
   VRHFIN =Br: s2p5                                                             
   LEXCH  = PE                                                                  
   EATOM  =   368.2131 eV,   27.0629 Ry                                         
                                                                                
   TITEL  = PAW_PBE Br 06Sep2000                                                
   LULTRA =        F    use ultrasoft PP ?                                      
   IUNSCR =        1    unscreen: 0-lin 1-nonlin 2-no                           
   RPACOR =    1.900    partial core radius                                     
   POMASS =   79.904; ZVAL   =    7.000    mass and valenz                      
   RCORE  =    2.100    outmost cutoff radius                                   
   RWIGS  =    2.200; RWIGS  =    1.164    wigner-seitz radius (au A)           
   ENMAX  =  216.264; ENMIN  =  162.198 eV                                      
   ICORE  =        3    local potential                                         
   LCOR   =        T    correct aug charges                                     
   LPAW   =        T    paw PP                                                  
   EAUG   =  503.852                                                            
   DEXC   =    -.010                                                            
   RMAX   =    3.135    core radius for proj-oper                               
   RAUG   =    1.300    factor for augmentation sphere                          
   RDEP   =    2.186    radius for radial grids                                 
   QCUT   =   -3.987; QGAM   =    7.974    optimization parameters              
                                                                                
   Description                                                                  
     l     E      TYP  RCUT    TYP  RCUT                                        
     0   .000     23  2.100                                                     
     0   .000     23  2.100                                                     
     1   .000     23  2.100                                                     
     1   .000     23  2.100                                                     
     2   .000     23  2.100                                                     
     3  -.100      7  2.100                                                     
  local pseudopotential read in
  partial core-charges read in
  atomic valenz-charges read in
  non local Contribution for L=           0  read in
    real space projection operators read in
  non local Contribution for L=           0  read in
    real space projection operators read in
  non local Contribution for L=           1  read in
    real space projection operators read in
  non local Contribution for L=           1  read in
    real space projection operators read in
  non local Contribution for L=           2  read in
    real space projection operators read in
    PAW grid and wavefunctions read in

   number of l-projection  operators is LMAX  =           5
   number of lm-projection operators is LMMAX =          13


 ----------------------------------------------------------------------------- 
|                                                                             |
|  ADVICE TO THIS USER RUNNING 'VASP/VAMP'   (HEAR YOUR MASTER'S VOICE ...):  |
|                                                                             |
|      You enforced a specific xc-type in the INCAR file,                     |
|      a different type was found on the POTCAR file                          |
|          I HOPE YOU KNOW, WHAT YOU ARE  DOING                               |
|                                                                             |
 ----------------------------------------------------------------------------- 

 PAW_PBE Cs_sv 08Apr2002                :
 energy of atom  1       EATOM= -555.6835
 kinetic energy error for atom=    0.0019 (will be added to EATOM!!)
 PAW_PBE Pb 08Apr2002                   :
 energy of atom  2       EATOM=  -96.9868
 kinetic energy error for atom=    0.0000 (will be added to EATOM!!)
 PAW_PBE Br 06Sep2000                   :
 energy of atom  3       EATOM= -368.2131
 kinetic energy error for atom=    0.0011 (will be added to EATOM!!)


 POSCAR: CONTCAR                                 
  positions in direct lattice
  velocities in cartesian coordinates
 exchange correlation table for  LEXCH =       14
   RHO(1)=    0.500       N(1)  =     2000
   RHO(2)=  100.500       N(2)  =     4000



--------------------------------------------------------------------------------------------------------


 ion  position               nearest neighbor table
   1  0.500  0.500  0.500-
   2  0.000  0.000  0.000-   3 2.93   4 2.93   5 2.93   5 2.93   4 2.93   3 2.93
   3  0.500  0.000  0.000-   2 2.93   2 2.93
   4  0.000  0.500  0.000-   2 2.93   2 2.93
   5  0.000  0.000  0.500-   2 2.93   2 2.93

  LATTYP: Found a simple cubic cell.
 ALAT       =     5.8674931048
  
  Lattice vectors:
  
 A1 = (   5.8674931048,   0.0000000000,   0.0000000000)
 A2 = (   0.0000000000,   5.8674931048,   0.0000000000)
 A3 = (   0.0000000000,   0.0000000000,   5.8674931048)


Analysis of symmetry for initial positions (statically):
=====================================================================
 Subroutine PRICEL returns:
 Original cell was already a primitive cell.
 

 Routine SETGRP: Setting up the symmetry group for a 
 simple cubic supercell.


 Subroutine GETGRP returns: Found 48 space group operations
 (whereof 48 operations were pure point group operations)
 out of a pool of 48 trial point group operations.


The static configuration has the point symmetry O_h .


Analysis of symmetry for dynamics (positions and initial velocities):
=====================================================================
 Subroutine PRICEL returns:
 Original cell was already a primitive cell.
 

 Routine SETGRP: Setting up the symmetry group for a 
 simple cubic supercell.


 Subroutine GETGRP returns: Found 48 space group operations
 (whereof 48 operations were pure point group operations)
 out of a pool of 48 trial point group operations.


The dynamic configuration has the point symmetry O_h .


Analysis of structural, dynamic, and magnetic symmetry:
=====================================================================
 Subroutine PRICEL returns:
 Original cell was already a primitive cell.
 

 Routine SETGRP: Setting up the symmetry group for a 
 simple cubic supercell.


 Subroutine GETGRP returns: Found  6 space group operations
 (whereof  6 operations were pure point group operations)
 out of a pool of 48 trial point group operations.


The (compounded) configuration has the point symmetry S_6 .


 irot  :   1
 --------------------------------------------------------------------
 isymop:   1   0   0
           0   1   0
           0   0   1

 gtrans:     0.0000000     0.0000000     0.0000000

 ptrans:     0.0000000     0.0000000     0.0000000
 rotmap:
 (   1->   1)  (   2->   2)  (   3->   3)  (   4->   4)  (   5->   5) 


 irot  :   2
 --------------------------------------------------------------------
 isymop:  -1   0   0
           0  -1   0
           0   0  -1

 gtrans:     0.0000000     0.0000000     0.0000000

 ptrans:     0.0000000     0.0000000     0.0000000
 rotmap:
 (   1->   1)  (   2->   2)  (   3->   3)  (   4->   4)  (   5->   5) 


 irot  :   3
 --------------------------------------------------------------------
 isymop:   0   0   1
           1   0   0
           0   1   0

 gtrans:     0.0000000     0.0000000     0.0000000

 ptrans:     0.0000000     0.0000000     0.0000000
 rotmap:
 (   1->   1)  (   2->   2)  (   3->   4)  (   4->   5)  (   5->   3) 


 irot  :   4
 --------------------------------------------------------------------
 isymop:   0   0  -1
          -1   0   0
           0  -1   0

 gtrans:     0.0000000     0.0000000     0.0000000

 ptrans:     0.0000000     0.0000000     0.0000000
 rotmap:
 (   1->   1)  (   2->   2)  (   3->   4)  (   4->   5)  (   5->   3) 


 irot  :   5
 --------------------------------------------------------------------
 isymop:   0   1   0
           0   0   1
           1   0   0

 gtrans:     0.0000000     0.0000000     0.0000000

 ptrans:     0.0000000     0.0000000     0.0000000
 rotmap:
 (   1->   1)  (   2->   2)  (   3->   5)  (   4->   3)  (   5->   4) 


 irot  :   6
 --------------------------------------------------------------------
 isymop:   0  -1   0
           0   0  -1
          -1   0   0

 gtrans:     0.0000000     0.0000000     0.0000000

 ptrans:     0.0000000     0.0000000     0.0000000
 rotmap:
 (   1->   1)  (   2->   2)  (   3->   5)  (   4->   3)  (   5->   4) 


 KPOINTS: k-points                                
  interpolating k-points between supplied coordinates
  k-points in reciprocal lattice
Space group operators:
 irot       det(A)        alpha          n_x          n_y          n_z        tau_x        tau_y        tau_z
    1     1.000000     0.000000     1.000000     0.000000     0.000000     0.000000     0.000000     0.000000
    2    -1.000000     0.000000     1.000000     0.000000     0.000000     0.000000     0.000000     0.000000
    3     1.000000   120.000000    -0.577350    -0.577350    -0.577350     0.000000     0.000000     0.000000
    4    -1.000000   120.000000    -0.577350    -0.577350    -0.577350     0.000000     0.000000     0.000000
    5     1.000000   120.000000     0.577350     0.577350     0.577350     0.000000     0.000000     0.000000
    6    -1.000000   120.000000     0.577350     0.577350     0.577350     0.000000     0.000000     0.000000

 ----------------------------------------------------------------------------- 
|                                                                             |
|           W    W    AA    RRRRR   N    N  II  N    N   GGGG   !!!           |
|           W    W   A  A   R    R  NN   N  II  NN   N  G    G  !!!           |
|           W    W  A    A  R    R  N N  N  II  N N  N  G       !!!           |
|           W WW W  AAAAAA  RRRRR   N  N N  II  N  N N  G  GGG   !            |
|           WW  WW  A    A  R   R   N   NN  II  N   NN  G    G                |
|           W    W  A    A  R    R  N    N  II  N    N   GGGG   !!!           |
|                                                                             |
|      The number of bands has been changed from the values supplied          |
|      in the INCAR file. This is a result of running the parallel version.   |
|      The orbitals not found in the WAVECAR file will be initialized with    |
|      random numbers, which is usually adequate. For correlated              |
|      calculations, however, you should redo the groundstate calculation.    |
|      I found NBANDS    =       34  now  NBANDS  =      36                   |
|                                                                             |
 ----------------------------------------------------------------------------- 



--------------------------------------------------------------------------------------------------------




 Dimension of arrays:
   k-points           NKPTS =     20   k-points in BZ     NKDIM =     20   number of bands    NBANDS=     36
   number of dos      NEDOS =   1000   number of ions     NIONS =      5
   non local maximal  LDIM  =      5   non local SUM 2l+1 LMDIM =     13
   total plane-waves  NPLWV = 110592
   max r-space proj   IRMAX =      1   max aug-charges    IRDMAX=  62844
   dimension x,y,z NGX =    48 NGY =   48 NGZ =   48
   dimension x,y,z NGXF=    96 NGYF=   96 NGZF=   96
   support grid    NGXF=    96 NGYF=   96 NGZF=   96
   ions per type =               1   1   3
 NGX,Y,Z   is equivalent  to a cutoff of  13.60, 13.60, 13.60 a.u.
 NGXF,Y,Z  is equivalent  to a cutoff of  27.20, 27.20, 27.20 a.u.


 I would recommend the setting:
   dimension x,y,z NGX =    43 NGY =   43 NGZ =   43
 SYSTEM =  Name                                    
 POSCAR =  CONTCAR                                 

 Startparameter for this run:
   NWRITE =      2    write-flag & timer
   PREC   = accura    normal or accurate (medium, high low for compatibility)
   ISTART =      0    job   : 0-new  1-cont  2-samecut
   ICHARG =     11    charge: 1-file 2-atom 10-const
   ISPIN  =      1    spin polarized calculation?
   LNONCOLLINEAR =      T non collinear calculations
   LSORBIT =      T    spin-orbit coupling
   INIWAV =      1    electr: 0-lowe 1-rand  2-diag
   LASPH  =      F    aspherical Exc in radial PAW
   METAGGA=      F    non-selfconsistent MetaGGA calc.

 Electronic Relaxation 1
   ENCUT  =  500.0 eV  36.75 Ry    6.06 a.u.  10.70 10.70 10.70*2*pi/ulx,y,z
   ENINI  =  500.0     initial cutoff
   ENAUG  =  503.9 eV  augmentation charge cutoff
   NELM   =    300;   NELMIN=  2; NELMDL=  0     # of ELM steps 
   EDIFF  = 0.1E-05   stopping-criterion for ELM
   LREAL  =      F    real-space projection
   NLSPLINE    = F    spline interpolate recip. space projectors
   LCOMPAT=      F    compatible to vasp.4.4
   GGA_COMPAT  = T    GGA compatible to vasp.4.4-vasp.4.6
   LMAXPAW     = -100 max onsite density
   LMAXMIX     =    2 max onsite mixed and CHGCAR
   VOSKOWN=      0    Vosko Wilk Nusair interpolation
   ROPT   =    0.00000   0.00000   0.00000
 Ionic relaxation
   EDIFFG = -.5E-02   stopping-criterion for IOM
   NSW    =      0    number of steps for IOM
   NBLOCK =      1;   KBLOCK =      1    inner block; outer block 
   IBRION =     -1    ionic relax: 0-MD 1-quasi-New 2-CG
   NFREE  =      0    steps in history (QN), initial steepest desc. (CG)
   ISIF   =      7    stress and relaxation
   IWAVPR =     10    prediction:  0-non 1-charg 2-wave 3-comb
   ISYM   =      2    0-nonsym 1-usesym 2-fastsym
   LCORR  =      T    Harris-Foulkes like correction to forces

   POTIM  = 0.5000    time-step for ionic-motion
   TEIN   =    0.0    initial temperature
   TEBEG  =    0.0;   TEEND  =   0.0 temperature during run
   SMASS  =  -3.00    Nose mass-parameter (am)
   estimated Nose-frequenzy (Omega)   =  0.10E-29 period in steps =****** mass=  -0.787E-27a.u.
   SCALEE = 1.0000    scale energy and forces
   NPACO  =    256;   APACO  = 16.0  distance and # of slots for P.C.
   PSTRESS=    0.0 pullay stress

  Mass of Ions in am
   POMASS = 132.90207.20 79.90
  Ionic Valenz
   ZVAL   =   9.00  4.00  7.00
  Atomic Wigner-Seitz radii
   RWIGS  =  -1.00 -1.00 -1.00
  virtual crystal weights 
   VCA    =   1.00  1.00  1.00
   NELECT =      34.0000    total number of electrons
   NUPDOWN=      -1.0000    fix difference up-down

 DOS related values:
   EMIN   =  10.00;   EMAX   =-10.00  energy-range for DOS
   EFERMI =   0.00
   ISMEAR =     0;   SIGMA  =   0.05  broadening in eV -4-tet -1-fermi 0-gaus

 Electronic relaxation 2 (details)
   IALGO  =     68    algorithm
   LDIAG  =      T    sub-space diagonalisation (order eigenvalues)
   LSUBROT=      T    optimize rotation matrix (better conditioning)
   TURBO    =      0    0=normal 1=particle mesh
   IRESTART =      0    0=no restart 2=restart with 2 vectors
   NREBOOT  =      0    no. of reboots
   NMIN     =      0    reboot dimension
   EREF     =   0.00    reference energy to select bands
   IMIX   =      4    mixing-type and parameters
     AMIX     =   0.40;   BMIX     =  1.00
     AMIX_MAG =   1.60;   BMIX_MAG =  1.00
     AMIN     =   0.10
     WC   =   100.;   INIMIX=   1;  MIXPRE=   1;  MAXMIX= -45

 Intra band minimization:
   WEIMIN = 0.0000     energy-eigenvalue tresh-hold
   EBREAK =  0.69E-08  absolut break condition
   DEPER  =   0.30     relativ break condition  

   TIME   =   0.40     timestep for ELM

  volume/ion in A,a.u.               =      40.40       272.64
  Fermi-wavevector in a.u.,A,eV,Ry     =   0.903889  1.708103 11.116174  0.817016
  Thomas-Fermi vector in A             =   2.027270

 Write flags
   LWAVE  =      T    write WAVECAR
   LCHARG =      T    write CHGCAR
   LVTOT  =      F    write LOCPOT, total local potential
   LVHAR  =      F    write LOCPOT, Hartree potential only
   LELF   =      F    write electronic localiz. function (ELF)
   LORBIT =     10    0 simple, 1 ext, 2 COOP (PROOUT)


 Dipole corrections
   LMONO  =      F    monopole corrections only (constant potential shift)
   LDIPOL =      F    correct potential (dipole corrections)
   IDIPOL =      0    1-x, 2-y, 3-z, 4-all directions 
   EPSILON=  1.0000000 bulk dielectric constant

 Core level calculations are selected ICORELEVEL =  1
 Exchange correlation treatment:
   GGA     =    PS    GGA type
   LEXCH   =    14    internal setting for exchange type
   VOSKOWN=      0    Vosko Wilk Nusair interpolation
   LHFCALC =     F    Hartree Fock is set to
   LHFONE  =     F    Hartree Fock one center treatment
   AEXX    =    0.0000 exact exchange contribution

 Linear response parameters
   LEPSILON=     F    determine dielectric tensor
   LRPA    =     F    only Hartree local field effects (RPA)
   LNABLA  =     F    use nabla operator in PAW spheres
   LVEL    =     F    velocity operator in full k-point grid
   LINTERFAST=   F  fast interpolation
   KINTER  =     0    interpolate to denser k-point grid
   CSHIFT  =0.1000    complex shift for real part using Kramers Kronig
   OMEGAMAX=  -1.0    maximum frequency
   DEG_THRESHOLD= 0.2000000E-02 threshold for treating states as degnerate
   RTIME   =    0.100 relaxation time in fs

 Orbital magnetization related:
   ORBITALMAG=     F  switch on orbital magnetization
   LCHIMAG   =     F  perturbation theory with respect to B field
   DQ        =  0.001000  dq finite difference perturbation B field



--------------------------------------------------------------------------------------------------------


 Static calculation
 charge density and potential remain constant during run
 non collinear spin polarized calculation
 RMM-DIIS sequential band-by-band and
  variant of blocked Davidson during initial phase
 perform sub-space diagonalisation
    before iterative eigenvector-optimisation
 no mixing
 using additional bands           19
 reciprocal scheme for non local part
 use partial core corrections
 calculate Harris-corrections to forces   (improved forces if not selfconsistent)
 use gradient corrections 
 WARNING: stress and forces are not correct
  (second derivative of E(xc) not defined)
 use of overlap-Matrix (Vanderbilt PP)
 Gauss-broadening in eV      SIGMA  =   0.05


--------------------------------------------------------------------------------------------------------


  energy-cutoff  :      500.00
  volume of cell :      202.00
      direct lattice vectors                 reciprocal lattice vectors
     5.867493105  0.000000000  0.000000000     0.170430537  0.000000000  0.000000000
     0.000000000  5.867493105  0.000000000     0.000000000  0.170430537  0.000000000
     0.000000000  0.000000000  5.867493105     0.000000000  0.000000000  0.170430537

  length of vectors
     5.867493105  5.867493105  5.867493105     0.170430537  0.170430537  0.170430537



 k-points in units of 2pi/SCALE and weight: k-points                                
   0.00000000  0.00000000  0.00000000       0.050
   0.00946836  0.00946836  0.00946836       0.050
   0.01893673  0.01893673  0.01893673       0.050
   0.02840509  0.02840509  0.02840509       0.050
   0.03787345  0.03787345  0.03787345       0.050
   0.04734182  0.04734182  0.04734182       0.050
   0.05681018  0.05681018  0.05681018       0.050
   0.06627854  0.06627854  0.06627854       0.050
   0.07574691  0.07574691  0.07574691       0.050
   0.08521527  0.08521527  0.08521527       0.050
   0.08521527  0.08521527  0.08521527       0.050
   0.08521527  0.08521527  0.07574691       0.050
   0.08521527  0.08521527  0.06627854       0.050
   0.08521527  0.08521527  0.05681018       0.050
   0.08521527  0.08521527  0.04734182       0.050
   0.08521527  0.08521527  0.03787345       0.050
   0.08521527  0.08521527  0.02840509       0.050
   0.08521527  0.08521527  0.01893673       0.050
   0.08521527  0.08521527  0.00946836       0.050
   0.08521527  0.08521527  0.00000000       0.050

 k-points in reciprocal lattice and weights: k-points                                
   0.00000000  0.00000000  0.00000000       0.050
   0.05555556  0.05555556  0.05555556       0.050
   0.11111111  0.11111111  0.11111111       0.050
   0.16666667  0.16666667  0.16666667       0.050
   0.22222222  0.22222222  0.22222222       0.050
   0.27777778  0.27777778  0.27777778       0.050
   0.33333333  0.33333333  0.33333333       0.050
   0.38888889  0.38888889  0.38888889       0.050
   0.44444444  0.44444444  0.44444444       0.050
   0.50000000  0.50000000  0.50000000       0.050
   0.50000000  0.50000000  0.50000000       0.050
   0.50000000  0.50000000  0.44444444       0.050
   0.50000000  0.50000000  0.38888889       0.050
   0.50000000  0.50000000  0.33333333       0.050
   0.50000000  0.50000000  0.27777778       0.050
   0.50000000  0.50000000  0.22222222       0.050
   0.50000000  0.50000000  0.16666667       0.050
   0.50000000  0.50000000  0.11111111       0.050
   0.50000000  0.50000000  0.05555556       0.050
   0.50000000  0.50000000  0.00000000       0.050

 position of ions in fractional coordinates (direct lattice) 
   0.50000000  0.50000000  0.50000000
   0.00000000  0.00000000  0.00000000
   0.50000000  0.00000000  0.00000000
   0.00000000  0.50000000  0.00000000
   0.00000000  0.00000000  0.50000000

 position of ions in cartesian coordinates  (Angst):
   2.93374655  2.93374655  2.93374655
   0.00000000  0.00000000  0.00000000
   2.93374655  0.00000000  0.00000000
   0.00000000  2.93374655  0.00000000
   0.00000000  0.00000000  2.93374655

 Euler angles ALPHA=     0.0000000  BETA=     0.0000000

 transformation matrix from SAXIS to cartesian coordinates
 ---------------------------------------------------------
     1.0000000 m_x    -0.0000000 m_y     0.0000000 m_z
     0.0000000 m_x     1.0000000 m_y     0.0000000 m_z
    -0.0000000 m_x     0.0000000 m_y     1.0000000 m_z

 transformation matrix from cartesian coordinates to SAXIS
 ---------------------------------------------------------
     1.0000000 m_x     0.0000000 m_y    -0.0000000 m_z
    -0.0000000 m_x     1.0000000 m_y     0.0000000 m_z
     0.0000000 m_x     0.0000000 m_y     1.0000000 m_z




--------------------------------------------------------------------------------------------------------


 k-point  1 :   0.0000 0.0000 0.0000  plane waves:   10274
 k-point  2 :   0.0556 0.0556 0.0556  plane waves:   10226
 k-point  3 :   0.1111 0.1111 0.1111  plane waves:   10256
 k-point  4 :   0.1667 0.1667 0.1667  plane waves:   10250
 k-point  5 :   0.2222 0.2222 0.2222  plane waves:   10284
 k-point  6 :   0.2778 0.2778 0.2778  plane waves:   10224
 k-point  7 :   0.3333 0.3333 0.3333  plane waves:   10260
 k-point  8 :   0.3889 0.3889 0.3889  plane waves:   10200
 k-point  9 :   0.4444 0.4444 0.4444  plane waves:   10194
 k-point 10 :   0.5000 0.5000 0.5000  plane waves:   10080
 k-point 11 :   0.5000 0.5000 0.5000  plane waves:   10080
 k-point 12 :   0.5000 0.5000 0.4444  plane waves:   10232
 k-point 13 :   0.5000 0.5000 0.3889  plane waves:   10232
 k-point 14 :   0.5000 0.5000 0.3333  plane waves:   10256
 k-point 15 :   0.5000 0.5000 0.2778  plane waves:   10248
 k-point 16 :   0.5000 0.5000 0.2222  plane waves:   10248
 k-point 17 :   0.5000 0.5000 0.1667  plane waves:   10232
 k-point 18 :   0.5000 0.5000 0.1111  plane waves:   10280
 k-point 19 :   0.5000 0.5000 0.0556  plane waves:   10288
 k-point 20 :   0.5000 0.5000 0.0000  plane waves:   10224

 maximum and minimum number of plane-waves per node :      1744     1664

 maximum number of plane-waves:     10288
 maximum index in each direction: 
   IXMAX=   10   IYMAX=   10   IZMAX=   10
   IXMIN=  -11   IYMIN=  -11   IZMIN=  -11

 NGX is ok and might be reduce to  44
 NGY is ok and might be reduce to  44
 NGZ is ok and might be reduce to  44

 parallel 3D FFT for wavefunctions:
    minimum data exchange during FFTs selected (reduces bandwidth)
 parallel 3D FFT for charge:
    minimum data exchange during FFTs selected (reduces bandwidth)


 total amount of memory used by VASP on root node    46135. kBytes
========================================================================

   base      :      30000. kBytes
   nonl-proj :       5536. kBytes
   fftplans  :       1762. kBytes
   grid      :       7077. kBytes
   one-center:         32. kBytes
   wavefun   :       1728. kBytes

 initial charge density was supplied:
 number of electron      34.0000006 magnetization       5.0000000      5.0000000      5.0000000
 keeping initial charge density in first step


--------------------------------------------------------------------------------------------------------


 Maximum index for augmentation-charges         1938 (set IRDMAX)


--------------------------------------------------------------------------------------------------------


 First call to EWALD:  gamma=   0.302
 Maximum number of real-space cells 3x 3x 3
 Maximum number of reciprocal cells 3x 3x 3

 FEWALD executed in parallel
    FEWALD:  cpu time    0.00: real time    0.00


----------------------------------------- Iteration    1(   1)  ---------------------------------------


    POTLOK:  cpu time    0.09: real time    0.09
    SETDIJ:  cpu time    0.01: real time    0.01
     EDDAV:  cpu time    0.79: real time    0.79
       DOS:  cpu time    0.00: real time    0.00
    --------------------------------------------
      LOOP:  cpu time    0.89: real time    0.94

 eigenvalue-minimisations  :  1440
 total energy-change (2. order) : 0.2547365E+03  (-0.1296762E+04)
 number of electron      34.0000006 magnetization       5.0000000      5.0000000      5.0000000
 augmentation part       34.0000006 magnetization       5.0000000      5.0000000      5.0000000

 Free energy of the ion-electron system (eV)
  ---------------------------------------------------
  alpha Z        PSCENC =        70.35344547
  Ewald energy   TEWEN  =     -1420.48342222
  -1/2 Hartree   DENC   =      -286.38042777
  -exchange  EXHF       =         0.00000000
  -V(xc)+E(xc)   XCENC  =       -83.45409236
  PAW double counting   =      1015.04304851     -857.18887269
  entropy T*S    EENTRO =        -0.00152559
  eigenvalues    EBANDS =        57.54413393
  atomic energy  EATOM  =      1759.30417769
  ---------------------------------------------------
  free energy    TOTEN  =       254.73646497 eV

  energy without entropy =      254.73799056  energy(sigma->0) =      254.73722776


--------------------------------------------------------------------------------------------------------




----------------------------------------- Iteration    1(   2)  ---------------------------------------


     EDDAV:  cpu time    1.09: real time    1.10
       DOS:  cpu time    0.00: real time    0.00
    --------------------------------------------
      LOOP:  cpu time    1.10: real time    1.11

 eigenvalue-minimisations  :  2112
 total energy-change (2. order) :-0.2367756E+03  (-0.2358839E+03)
 number of electron      34.0000006 magnetization       5.0000000      5.0000000      5.0000000
 augmentation part       34.0000006 magnetization       5.0000000      5.0000000      5.0000000

 Free energy of the ion-electron system (eV)
  ---------------------------------------------------
  alpha Z        PSCENC =        70.35344547
  Ewald energy   TEWEN  =     -1420.48342222
  -1/2 Hartree   DENC   =      -286.38042777
  -exchange  EXHF       =         0.00000000
  -V(xc)+E(xc)   XCENC  =       -83.45409236
  PAW double counting   =      1015.04304851     -857.18887269
  entropy T*S    EENTRO =        -0.00120503
  eigenvalues    EBANDS =      -179.23182926
  atomic energy  EATOM  =      1759.30417769
  ---------------------------------------------------
  free energy    TOTEN  =        17.96082233 eV

  energy without entropy =       17.96202737  energy(sigma->0) =       17.96142485


--------------------------------------------------------------------------------------------------------




----------------------------------------- Iteration    1(   3)  ---------------------------------------


     EDDAV:  cpu time    0.90: real time    0.90
       DOS:  cpu time    0.00: real time    0.00
    --------------------------------------------
      LOOP:  cpu time    0.90: real time    0.91

 eigenvalue-minimisations  :  1740
 total energy-change (2. order) :-0.2669562E+02  (-0.2663110E+02)
 number of electron      34.0000006 magnetization       5.0000000      5.0000000      5.0000000
 augmentation part       34.0000006 magnetization       5.0000000      5.0000000      5.0000000

 Free energy of the ion-electron system (eV)
  ---------------------------------------------------
  alpha Z        PSCENC =        70.35344547
  Ewald energy   TEWEN  =     -1420.48342222
  -1/2 Hartree   DENC   =      -286.38042777
  -exchange  EXHF       =         0.00000000
  -V(xc)+E(xc)   XCENC  =       -83.45409236
  PAW double counting   =      1015.04304851     -857.18887269
  entropy T*S    EENTRO =        -0.00192263
  eigenvalues    EBANDS =      -205.92673506
  atomic energy  EATOM  =      1759.30417769
  ---------------------------------------------------
  free energy    TOTEN  =        -8.73480106 eV

  energy without entropy =       -8.73287843  energy(sigma->0) =       -8.73383974


--------------------------------------------------------------------------------------------------------




----------------------------------------- Iteration    1(   4)  ---------------------------------------


     EDDAV:  cpu time    1.00: real time    1.00
       DOS:  cpu time    0.00: real time    0.00
    --------------------------------------------
      LOOP:  cpu time    1.00: real time    1.01

 eigenvalue-minimisations  :  1872
 total energy-change (2. order) :-0.6341726E+00  (-0.6217184E+00)
 number of electron      34.0000006 magnetization       5.0000000      5.0000000      5.0000000
 augmentation part       34.0000006 magnetization       5.0000000      5.0000000      5.0000000

 Free energy of the ion-electron system (eV)
  ---------------------------------------------------
  alpha Z        PSCENC =        70.35344547
  Ewald energy   TEWEN  =     -1420.48342222
  -1/2 Hartree   DENC   =      -286.38042777
  -exchange  EXHF       =         0.00000000
  -V(xc)+E(xc)   XCENC  =       -83.45409236
  PAW double counting   =      1015.04304851     -857.18887269
  entropy T*S    EENTRO =        -0.00003254
  eigenvalues    EBANDS =      -206.56279777
  atomic energy  EATOM  =      1759.30417769
  ---------------------------------------------------
  free energy    TOTEN  =        -9.36897368 eV

  energy without entropy =       -9.36894113  energy(sigma->0) =       -9.36895741


--------------------------------------------------------------------------------------------------------




----------------------------------------- Iteration    1(   5)  ---------------------------------------


     EDDAV:  cpu time    1.05: real time    1.05
       DOS:  cpu time    0.00: real time    0.00



 total charge     

# of ion     s       p       d       tot
----------------------------------------
  1        1.944   4.714   0.007   6.665
  2        1.791   0.837   0.197   2.824
  3        1.592   3.340   0.007   4.940
  4        1.592   3.340   0.007   4.940
  5        1.601   3.180   0.010   4.791
------------------------------------------------
tot        8.521  15.411   0.227  24.160



 magnetization (x)

# of ion     s       p       d       tot
----------------------------------------
  1        0.036   0.009  -0.000   0.045
  2        0.039   0.059  -0.003   0.096
  3        0.012   0.058   0.001   0.070
  4        0.014   0.056   0.001   0.071
  5        0.014   0.053   0.001   0.068
------------------------------------------------
tot        0.115   0.236  -0.000   0.350



 magnetization (y)

# of ion     s       p       d       tot
----------------------------------------
  1        0.036   0.009  -0.000   0.045
  2        0.039   0.059  -0.003   0.096
  3        0.014   0.056   0.001   0.071
  4        0.012   0.058   0.001   0.070
  5        0.014   0.053   0.001   0.068
------------------------------------------------
tot        0.115   0.235  -0.000   0.350



 magnetization (z)

# of ion     s       p       d       tot
----------------------------------------
  1        0.036   0.009  -0.000   0.045
  2        0.045   0.076  -0.003   0.118
  3        0.015   0.059   0.002   0.075
  4        0.015   0.058   0.002   0.075
  5        0.011   0.059   0.000   0.070
------------------------------------------------
tot        0.121   0.261   0.000   0.382

    --------------------------------------------
      LOOP:  cpu time    1.05: real time    1.06

 eigenvalue-minimisations  :  1884
 total energy-change (2. order) :-0.1107687E-01  (-0.1107569E-01)
 number of electron      34.0000006 magnetization       5.0000000      5.0000000      5.0000000
 augmentation part       34.0000006 magnetization       5.0000000      5.0000000      5.0000000

 Free energy of the ion-electron system (eV)
  ---------------------------------------------------
  alpha Z        PSCENC =        70.35344547
  Ewald energy   TEWEN  =     -1420.48342222
  -1/2 Hartree   DENC   =      -286.38042777
  -exchange  EXHF       =         0.00000000
  -V(xc)+E(xc)   XCENC  =       -83.45409236
  PAW double counting   =      1015.04304851     -857.18887269
  entropy T*S    EENTRO =        -0.00003630
  eigenvalues    EBANDS =      -206.57387088
  atomic energy  EATOM  =      1759.30417769
  ---------------------------------------------------
  free energy    TOTEN  =        -9.38005055 eV

  energy without entropy =       -9.38001425  energy(sigma->0) =       -9.38003240


--------------------------------------------------------------------------------------------------------




----------------------------------------- Iteration    1(   6)  ---------------------------------------


    EDDIAG:  cpu time    0.21: real time    0.21
  RMM-DIIS:  cpu time    0.55: real time    0.55
    ORTHCH:  cpu time    0.02: real time    0.02
       DOS:  cpu time    0.00: real time    0.00
    --------------------------------------------
      LOOP:  cpu time    0.78: real time    0.79

 eigenvalue-minimisations  :  1452
 total energy-change (2. order) :-0.2158360E-03  (-0.2158356E-03)
 number of electron      34.0000006 magnetization       5.0000000      5.0000000      5.0000000
 augmentation part       34.0000006 magnetization       5.0000000      5.0000000      5.0000000

 Free energy of the ion-electron system (eV)
  ---------------------------------------------------
  alpha Z        PSCENC =        70.35344547
  Ewald energy   TEWEN  =     -1420.48342222
  -1/2 Hartree   DENC   =      -286.38042777
  -exchange  EXHF       =         0.00000000
  -V(xc)+E(xc)   XCENC  =       -83.45409236
  PAW double counting   =      1015.04304851     -857.18887269
  entropy T*S    EENTRO =        -0.00003656
  eigenvalues    EBANDS =      -206.57408645
  atomic energy  EATOM  =      1759.30417769
  ---------------------------------------------------
  free energy    TOTEN  =        -9.38026639 eV

  energy without entropy =       -9.38022982  energy(sigma->0) =       -9.38024810


--------------------------------------------------------------------------------------------------------




----------------------------------------- Iteration    1(   7)  ---------------------------------------


    EDDIAG:  cpu time    0.21: real time    0.21
  RMM-DIIS:  cpu time    0.78: real time    0.78
    ORTHCH:  cpu time    0.02: real time    0.02
       DOS:  cpu time    0.00: real time    0.00
    --------------------------------------------
      LOOP:  cpu time    1.02: real time    1.04

 eigenvalue-minimisations  :  1783
 total energy-change (2. order) :-0.3636159E-04  (-0.3756572E-04)
 number of electron      34.0000006 magnetization       5.0000000      5.0000000      5.0000000
 augmentation part       34.0000006 magnetization       5.0000000      5.0000000      5.0000000

 Free energy of the ion-electron system (eV)
  ---------------------------------------------------
  alpha Z        PSCENC =        70.35344547
  Ewald energy   TEWEN  =     -1420.48342222
  -1/2 Hartree   DENC   =      -286.38042777
  -exchange  EXHF       =         0.00000000
  -V(xc)+E(xc)   XCENC  =       -83.45409236
  PAW double counting   =      1015.04304851     -857.18887269
  entropy T*S    EENTRO =        -0.00003660
  eigenvalues    EBANDS =      -206.57412278
  atomic energy  EATOM  =      1759.30417769
  ---------------------------------------------------
  free energy    TOTEN  =        -9.38030275 eV

  energy without entropy =       -9.38026615  energy(sigma->0) =       -9.38028445


--------------------------------------------------------------------------------------------------------




----------------------------------------- Iteration    1(   8)  ---------------------------------------


    EDDIAG:  cpu time    0.21: real time    0.21
  RMM-DIIS:  cpu time    0.63: real time    0.63
    ORTHCH:  cpu time    0.02: real time    0.02
       DOS:  cpu time    0.00: real time    0.00
    --------------------------------------------
      LOOP:  cpu time    0.86: real time    0.87

 eigenvalue-minimisations  :  1138
 total energy-change (2. order) :-0.2534459E-05  (-0.4436930E-05)
 number of electron      34.0000006 magnetization       5.0000000      5.0000000      5.0000000
 augmentation part       34.0000006 magnetization       5.0000000      5.0000000      5.0000000

 Free energy of the ion-electron system (eV)
  ---------------------------------------------------
  alpha Z        PSCENC =        70.35344547
  Ewald energy   TEWEN  =     -1420.48342222
  -1/2 Hartree   DENC   =      -286.38042777
  -exchange  EXHF       =         0.00000000
  -V(xc)+E(xc)   XCENC  =       -83.45409236
  PAW double counting   =      1015.04304851     -857.18887269
  entropy T*S    EENTRO =        -0.00003660
  eigenvalues    EBANDS =      -206.57412531
  atomic energy  EATOM  =      1759.30417769
  ---------------------------------------------------
  free energy    TOTEN  =        -9.38030528 eV

  energy without entropy =       -9.38026868  energy(sigma->0) =       -9.38028698


--------------------------------------------------------------------------------------------------------




----------------------------------------- Iteration    1(   9)  ---------------------------------------


    EDDIAG:  cpu time    0.21: real time    0.21
  RMM-DIIS:  cpu time    0.51: real time    0.51
    ORTHCH:  cpu time    0.02: real time    0.02
       DOS:  cpu time    0.00: real time    0.00
    --------------------------------------------
      LOOP:  cpu time    0.78: real time    0.79

 eigenvalue-minimisations  :   740
 total energy-change (2. order) :-0.6231132E-06  (-0.9038675E-06)
 number of electron      34.0000006 magnetization       5.0000000      5.0000000      5.0000000
 augmentation part       34.0000006 magnetization       5.0000000      5.0000000      5.0000000

 Free energy of the ion-electron system (eV)
  ---------------------------------------------------
  alpha Z        PSCENC =        70.35344547
  Ewald energy   TEWEN  =     -1420.48342222
  -1/2 Hartree   DENC   =      -286.38042777
  -exchange  EXHF       =         0.00000000
  -V(xc)+E(xc)   XCENC  =       -83.45409236
  PAW double counting   =      1015.04304851     -857.18887269
  entropy T*S    EENTRO =        -0.00003661
  eigenvalues    EBANDS =      -206.57412593
  atomic energy  EATOM  =      1759.30417769
  ---------------------------------------------------
  free energy    TOTEN  =        -9.38030591 eV

  energy without entropy =       -9.38026930  energy(sigma->0) =       -9.38028760


--------------------------------------------------------------------------------------------------------




 the core state eigenenergies are
   1-  1s -35784.1992  2s  -5607.5888  2p  -5028.9837  3s  -1160.9875  3p   -974.8885
       3d   -701.9900  4s   -214.1015  4p   -154.6174  4d    -68.0099
   2-  1s -88086.5689  2s -15748.0735  2p -13502.8350  3s  -3776.3683  3p  -3132.9068
       3d  -2477.9508  4s   -850.9627  4p   -640.1761  4d   -396.5677  5s   -138.8614
       4f   -127.6047  5p    -80.5756  5d    -15.5854
   3-  1s -13312.1601  2s  -1726.5105  2p  -1522.0394  3s   -231.0402  3p   -166.4518
       3d    -59.5439
   4-  1s -13312.1601  2s  -1726.5105  2p  -1522.0394  3s   -231.0402  3p   -166.4518
       3d    -59.5439
   5-  1s -13312.1601  2s  -1726.5105  2p  -1522.0394  3s   -231.0402  3p   -166.4518
       3d    -59.5439

 E-fermi :   1.1841     XC(G=0):  -7.7120     alpha+bet : -6.6704


 k-point   1 :       0.0000    0.0000    0.0000
  band No.  band energies     occupation 
      1     -21.0655      1.00000
      2     -19.9808      1.00000
      3     -14.5223      1.00000
      4     -13.9475      1.00000
      5     -13.9475      1.00000
      6     -13.1806      1.00000
      7     -12.5812      1.00000
      8     -12.5812      1.00000
      9      -8.6032      1.00000
     10      -8.3196      1.00000
     11      -7.2631      1.00000
     12      -6.7793      1.00000
     13      -6.6335      1.00000
     14      -6.4996      1.00000
     15      -6.2804      1.00000
     16      -5.4918      1.00000
     17      -4.2170      1.00000
     18      -4.1287      1.00000
     19      -4.0256      1.00000
     20      -2.9217      1.00000
     21      -2.8312      1.00000
     22      -2.7629      1.00000
     23      -1.9379      1.00000
     24      -1.8899      1.00000
     25      -1.8462      1.00000
     26      -1.7777      1.00000
     27      -1.7677      1.00000
     28      -1.5735      1.00000
     29      -0.6623      1.00000
     30      -0.5806      1.00000
     31      -0.5779      1.00000
     32      -0.5045      1.00000
     33      -0.4164      1.00000
     34      -0.2883      1.00000
     35       3.5151      0.00000
     36       4.1149      0.00000

 k-point   2 :       0.0556    0.0556    0.0556
  band No.  band energies     occupation 
      1     -21.0654      1.00000
      2     -19.9807      1.00000
      3     -14.5122      1.00000
      4     -13.9535      1.00000
      5     -13.9531      1.00000
      6     -13.1701      1.00000
      7     -12.5874      1.00000
      8     -12.5870      1.00000
      9      -8.6029      1.00000
     10      -8.3181      1.00000
     11      -7.2628      1.00000
     12      -6.7823      1.00000
     13      -6.7365      1.00000
     14      -6.4965      1.00000
     15      -6.2801      1.00000
     16      -5.5932      1.00000
     17      -4.1710      1.00000
     18      -4.0051      1.00000
     19      -3.9843      1.00000
     20      -2.8776      1.00000
     21      -2.7237      1.00000
     22      -2.7189      1.00000
     23      -1.9398      1.00000
     24      -1.9103      1.00000
     25      -1.8357      1.00000
     26      -1.8004      1.00000
     27      -1.7891      1.00000
     28      -1.5741      1.00000
     29      -0.6889      1.00000
     30      -0.5795      1.00000
     31      -0.5671      1.00000
     32      -0.5330      1.00000
     33      -0.4504      1.00000
     34      -0.2897      1.00000
     35       3.6061      0.00000
     36       4.2144      0.00000

 k-point   3 :       0.1111    0.1111    0.1111
  band No.  band energies     occupation 
      1     -21.0651      1.00000
      2     -19.9804      1.00000
      3     -14.4824      1.00000
      4     -13.9706      1.00000
      5     -13.9691      1.00000
      6     -13.1391      1.00000
      7     -12.6051      1.00000
      8     -12.6036      1.00000
      9      -8.6024      1.00000
     10      -8.3144      1.00000
     11      -7.2625      1.00000
     12      -7.0125      1.00000
     13      -6.7713      1.00000
     14      -6.4890      1.00000
     15      -6.2800      1.00000
     16      -5.8497      1.00000
     17      -4.0360      1.00000
     18      -3.8621      1.00000
     19      -3.6923      1.00000
     20      -2.7481      1.00000
     21      -2.6109      1.00000
     22      -2.4344      1.00000
     23      -1.9657      1.00000
     24      -1.9630      1.00000
     25      -1.8657      1.00000
     26      -1.8261      1.00000
     27      -1.7877      1.00000
     28      -1.5707      1.00000
     29      -0.7640      1.00000
     30      -0.6453      1.00000
     31      -0.5464      1.00000
     32      -0.5398      1.00000
     33      -0.5139      1.00000
     34      -0.2882      1.00000
     35       3.8509      0.00000
     36       4.4825      0.00000

 k-point   4 :       0.1667    0.1667    0.1667
  band No.  band energies     occupation 
      1     -21.0647      1.00000
      2     -19.9800      1.00000
      3     -14.4352      1.00000
      4     -13.9965      1.00000
      5     -13.9934      1.00000
      6     -13.0900      1.00000
      7     -12.6318      1.00000
      8     -12.6285      1.00000
      9      -8.6026      1.00000
     10      -8.3112      1.00000
     11      -7.3514      1.00000
     12      -7.2638      1.00000
     13      -6.7693      1.00000
     14      -6.4819      1.00000
     15      -6.2817      1.00000
     16      -6.1788      1.00000
     17      -3.8185      1.00000
     18      -3.6649      1.00000
     19      -3.2987      1.00000
     20      -2.5440      1.00000
     21      -2.4479      1.00000
     22      -2.1179      1.00000
     23      -2.0263      1.00000
     24      -2.0090      1.00000
     25      -1.8956      1.00000
     26      -1.8202      1.00000
     27      -1.7239      1.00000
     28      -1.5546      1.00000
     29      -0.8715      1.00000
     30      -0.7738      1.00000
     31      -0.5827      1.00000
     32      -0.5193      1.00000
     33      -0.4573      1.00000
     34      -0.2746      1.00000
     35       4.1399      0.00000
     36       4.2725      0.00000

 k-point   5 :       0.2222    0.2222    0.2222
  band No.  band energies     occupation 
      1     -21.0643      1.00000
      2     -19.9794      1.00000
      3     -14.3748      1.00000
      4     -14.0276      1.00000
      5     -14.0226      1.00000
      6     -13.0269      1.00000
      7     -12.6638      1.00000
      8     -12.6586      1.00000
      9      -8.6047      1.00000
     10      -8.3110      1.00000
     11      -7.7006      1.00000
     12      -7.2679      1.00000
     13      -6.7711      1.00000
     14      -6.5224      1.00000
     15      -6.4795      1.00000
     16      -6.2866      1.00000
     17      -3.5275      1.00000
     18      -3.4043      1.00000
     19      -2.9419      1.00000
     20      -2.3381      1.00000
     21      -2.2782      1.00000
     22      -2.1788      1.00000
     23      -1.9817      1.00000
     24      -1.8188      1.00000
     25      -1.8124      1.00000
     26      -1.7112      1.00000
     27      -1.6284      1.00000
     28      -1.5211      1.00000
     29      -0.9865      1.00000
     30      -0.9147      1.00000
     31      -0.5147      1.00000
     32      -0.4740      1.00000
     33      -0.3680      1.00000
     34      -0.2451      1.00000
     35       3.6471      0.00000
     36       3.9939      0.00000

 k-point   6 :       0.2778    0.2778    0.2778
  band No.  band energies     occupation 
      1     -21.0638      1.00000
      2     -19.9789      1.00000
      3     -14.3070      1.00000
      4     -14.0600      1.00000
      5     -14.0531      1.00000
      6     -12.9558      1.00000
      7     -12.6971      1.00000
      8     -12.6898      1.00000
      9      -8.6091      1.00000
     10      -8.3155      1.00000
     11      -8.0246      1.00000
     12      -7.2754      1.00000
     13      -6.8419      1.00000
     14      -6.7790      1.00000
     15      -6.4881      1.00000
     16      -6.2950      1.00000
     17      -3.1776      1.00000
     18      -3.1020      1.00000
     19      -2.7362      1.00000
     20      -2.3639      1.00000
     21      -2.2927      1.00000
     22      -1.9345      1.00000
     23      -1.7585      1.00000
     24      -1.7533      1.00000
     25      -1.6327      1.00000
     26      -1.5327      1.00000
     27      -1.4624      1.00000
     28      -1.4212      1.00000
     29      -1.0823      1.00000
     30      -1.0421      1.00000
     31      -0.4122      1.00000
     32      -0.3255      1.00000
     33      -0.1994      1.00000
     34      -0.1838      1.00000
     35       2.9883      0.00000
     36       3.4283      0.00000

 k-point   7 :       0.3333    0.3333    0.3333
  band No.  band energies     occupation 
      1     -21.0634      1.00000
      2     -19.9785      1.00000
      3     -14.2397      1.00000
      4     -14.0898      1.00000
      5     -14.0812      1.00000
      6     -12.8849      1.00000
      7     -12.7276      1.00000
      8     -12.7186      1.00000
      9      -8.6150      1.00000
     10      -8.3248      1.00000
     11      -8.2998      1.00000
     12      -7.2852      1.00000
     13      -7.1160      1.00000
     14      -6.7921      1.00000
     15      -6.5042      1.00000
     16      -6.3059      1.00000
     17      -2.8060      1.00000
     18      -2.7950      1.00000
     19      -2.6519      1.00000
     20      -2.3965      1.00000
     21      -2.3914      1.00000
     22      -1.6888      1.00000
     23      -1.5868      1.00000
     24      -1.5512      1.00000
     25      -1.4599      1.00000
     26      -1.4388      1.00000
     27      -1.3484      1.00000
     28      -1.1799      1.00000
     29      -1.1092      1.00000
     30      -0.9690      1.00000
     31      -0.3339      1.00000
     32      -0.2155      1.00000
     33      -0.1398      1.00000
     34       0.2383      1.00000
     35       2.3438      0.00000
     36       2.8085      0.00000

 k-point   8 :       0.3889    0.3889    0.3889
  band No.  band energies     occupation 
      1     -21.0631      1.00000
      2     -19.9781      1.00000
      3     -14.1819      1.00000
      4     -14.1137      1.00000
      5     -14.1037      1.00000
      6     -12.8238      1.00000
      7     -12.7520      1.00000
      8     -12.7417      1.00000
      9      -8.6213      1.00000
     10      -8.5112      1.00000
     11      -8.3342      1.00000
     12      -7.3264      1.00000
     13      -7.2950      1.00000
     14      -6.8066      1.00000
     15      -6.5235      1.00000
     16      -6.3167      1.00000
     17      -2.6429      1.00000
     18      -2.6078      1.00000
     19      -2.4782      1.00000
     20      -2.4137      1.00000
     21      -2.3094      1.00000
     22      -1.6137      1.00000
     23      -1.4808      1.00000
     24      -1.4748      1.00000
     25      -1.3804      1.00000
     26      -1.2682      1.00000
     27      -1.2514      1.00000
     28      -1.0786      1.00000
     29      -0.9454      1.00000
     30      -0.5057      1.00000
     31      -0.2146      1.00000
     32      -0.1348      1.00000
     33      -0.0707      1.00000
     34       0.7171      1.00000
     35       1.7825      0.00000
     36       2.1826      0.00000

 k-point   9 :       0.4444    0.4444    0.4444
  band No.  band energies     occupation 
      1     -21.0629      1.00000
      2     -19.9779      1.00000
      3     -14.1427      1.00000
      4     -14.1291      1.00000
      5     -14.1182      1.00000
      6     -12.7822      1.00000
      7     -12.7677      1.00000
      8     -12.7565      1.00000
      9      -8.6435      1.00000
     10      -8.6260      1.00000
     11      -8.3425      1.00000
     12      -7.4589      1.00000
     13      -7.3022      1.00000
     14      -6.8180      1.00000
     15      -6.5389      1.00000
     16      -6.3247      1.00000
     17      -2.6263      1.00000
     18      -2.5794      1.00000
     19      -2.5158      1.00000
     20      -2.1489      1.00000
     21      -2.1408      1.00000
     22      -1.5281      1.00000
     23      -1.4572      1.00000
     24      -1.4408      1.00000
     25      -1.3409      1.00000
     26      -1.2846      1.00000
     27      -1.2297      1.00000
     28      -0.7768      1.00000
     29      -0.7405      1.00000
     30      -0.2471      1.00000
     31      -0.0795      1.00000
     32      -0.0040      1.00000
     33       0.1234      1.00000
     34       1.0066      1.00000
     35       1.5103      0.00000
     36       1.6091      0.00000

 k-point  10 :       0.5000    0.5000    0.5000
  band No.  band energies     occupation 
      1     -21.0628      1.00000
      2     -19.9778      1.00000
      3     -14.1344      1.00000
      4     -14.1288      1.00000
      5     -14.1232      1.00000
      6     -12.7731      1.00000
      7     -12.7674      1.00000
      8     -12.7616      1.00000
      9      -8.6887      1.00000
     10      -8.6277      1.00000
     11      -8.3456      1.00000
     12      -7.5042      1.00000
     13      -7.3049      1.00000
     14      -6.8222      1.00000
     15      -6.5448      1.00000
     16      -6.3276      1.00000
     17      -2.6294      1.00000
     18      -2.5688      1.00000
     19      -2.5310      1.00000
     20      -2.0695      1.00000
     21      -2.0520      1.00000
     22      -1.4794      1.00000
     23      -1.4558      1.00000
     24      -1.4311      1.00000
     25      -1.3260      1.00000
     26      -1.2932      1.00000
     27      -1.2085      1.00000
     28      -0.6657      1.00000
     29      -0.6600      1.00000
     30      -0.1829      1.00000
     31      -0.0589      1.00000
     32       0.0274      1.00000
     33       0.4063      1.00000
     34       0.9651      1.00000
     35       1.2882      0.00163
     36       1.5943      0.00000

 k-point  11 :       0.5000    0.5000    0.5000
  band No.  band energies     occupation 
      1     -21.0628      1.00000
      2     -19.9778      1.00000
      3     -14.1344      1.00000
      4     -14.1288      1.00000
      5     -14.1232      1.00000
      6     -12.7731      1.00000
      7     -12.7674      1.00000
      8     -12.7616      1.00000
      9      -8.6887      1.00000
     10      -8.6277      1.00000
     11      -8.3456      1.00000
     12      -7.5042      1.00000
     13      -7.3049      1.00000
     14      -6.8222      1.00000
     15      -6.5448      1.00000
     16      -6.3276      1.00000
     17      -2.6294      1.00000
     18      -2.5688      1.00000
     19      -2.5310      1.00000
     20      -2.0695      1.00000
     21      -2.0520      1.00000
     22      -1.4794      1.00000
     23      -1.4558      1.00000
     24      -1.4311      1.00000
     25      -1.3260      1.00000
     26      -1.2932      1.00000
     27      -1.2085      1.00000
     28      -0.6657      1.00000
     29      -0.6600      1.00000
     30      -0.1829      1.00000
     31      -0.0589      1.00000
     32       0.0274      1.00000
     33       0.4063      1.00000
     34       0.9651      1.00000
     35       1.2882      0.00163
     36       1.5939      0.00000

 k-point  12 :       0.5000    0.5000    0.4444
  band No.  band energies     occupation 
      1     -21.0628      1.00000
      2     -19.9778      1.00000
      3     -14.1348      1.00000
      4     -14.1292      1.00000
      5     -14.1236      1.00000
      6     -12.7736      1.00000
      7     -12.7679      1.00000
      8     -12.7621      1.00000
      9      -8.6736      1.00000
     10      -8.6270      1.00000
     11      -8.3448      1.00000
     12      -7.4891      1.00000
     13      -7.3036      1.00000
     14      -6.8209      1.00000
     15      -6.5435      1.00000
     16      -6.3262      1.00000
     17      -2.6293      1.00000
     18      -2.5676      1.00000
     19      -2.5302      1.00000
     20      -2.1167      1.00000
     21      -2.0599      1.00000
     22      -1.4904      1.00000
     23      -1.4620      1.00000
     24      -1.4380      1.00000
     25      -1.3268      1.00000
     26      -1.2942      1.00000
     27      -1.2151      1.00000
     28      -0.7283      1.00000
     29      -0.6635      1.00000
     30      -0.1998      1.00000
     31      -0.0714      1.00000
     32       0.0145      1.00000
     33       0.2965      1.00000
     34       1.0391      0.99998
     35       1.3298      0.00002
     36       1.5773      0.00000

 k-point  13 :       0.5000    0.5000    0.3889
  band No.  band energies     occupation 
      1     -21.0629      1.00000
      2     -19.9779      1.00000
      3     -14.1361      1.00000
      4     -14.1304      1.00000
      5     -14.1247      1.00000
      6     -12.7752      1.00000
      7     -12.7692      1.00000
      8     -12.7633      1.00000
      9      -8.6295      1.00000
     10      -8.6248      1.00000
     11      -8.3425      1.00000
     12      -7.4448      1.00000
     13      -7.2998      1.00000
     14      -6.8170      1.00000
     15      -6.5394      1.00000
     16      -6.3220      1.00000
     17      -2.6331      1.00000
     18      -2.5650      1.00000
     19      -2.5273      1.00000
     20      -2.2698      1.00000
     21      -2.0625      1.00000
     22      -1.5252      1.00000
     23      -1.4851      1.00000
     24      -1.4520      1.00000
     25      -1.3333      1.00000
     26      -1.2922      1.00000
     27      -1.2280      1.00000
     28      -0.9117      1.00000
     29      -0.6657      1.00000
     30      -0.2483      1.00000
     31      -0.1111      1.00000
     32      -0.0232      1.00000
     33       0.1288      1.00000
     34       1.0872      0.99693
     35       1.3959      0.00000
     36       1.6347      0.00000

 k-point  14 :       0.5000    0.5000    0.3333
  band No.  band energies     occupation 
      1     -21.0630      1.00000
      2     -19.9780      1.00000
      3     -14.1389      1.00000
      4     -14.1319      1.00000
      5     -14.1258      1.00000
      6     -12.7787      1.00000
      7     -12.7709      1.00000
      8     -12.7646      1.00000
      9      -8.6215      1.00000
     10      -8.5594      1.00000
     11      -8.3390      1.00000
     12      -7.3746      1.00000
     13      -7.2940      1.00000
     14      -6.8111      1.00000
     15      -6.5333      1.00000
     16      -6.3155      1.00000
     17      -2.6553      1.00000
     18      -2.6062      1.00000
     19      -2.5316      1.00000
     20      -2.4311      1.00000
     21      -2.0654      1.00000
     22      -1.5848      1.00000
     23      -1.5325      1.00000
     24      -1.4654      1.00000
     25      -1.3591      1.00000
     26      -1.2807      1.00000
     27      -1.2345      1.00000
     28      -1.1657      1.00000
     29      -0.6691      1.00000
     30      -0.3196      1.00000
     31      -0.1798      1.00000
     32      -0.0977      1.00000
     33       0.0318      1.00000
     34       1.0582      0.99982
     35       1.4472      0.00000
     36       1.7805      0.00000

 k-point  15 :       0.5000    0.5000    0.2778
  band No.  band energies     occupation 
      1     -21.0631      1.00000
      2     -19.9782      1.00000
      3     -14.1433      1.00000
      4     -14.1331      1.00000
      5     -14.1269      1.00000
      6     -12.7840      1.00000
      7     -12.7722      1.00000
      8     -12.7658      1.00000
      9      -8.6175      1.00000
     10      -8.4688      1.00000
     11      -8.3347      1.00000
     12      -7.2868      1.00000
     13      -7.2841      1.00000
     14      -6.8038      1.00000
     15      -6.5257      1.00000
     16      -6.3075      1.00000
     17      -2.8790      1.00000
     18      -2.6655      1.00000
     19      -2.5108      1.00000
     20      -2.4339      1.00000
     21      -2.0690      1.00000
     22      -1.6679      1.00000
     23      -1.6019      1.00000
     24      -1.5550      1.00000
     25      -1.4311      1.00000
     26      -1.3732      1.00000
     27      -1.2415      1.00000
     28      -1.2059      1.00000
     29      -0.6738      1.00000
     30      -0.4016      1.00000
     31      -0.2702      1.00000
     32      -0.1924      1.00000
     33      -0.0029      1.00000
     34       1.0078      1.00000
     35       1.5218      0.00000
     36       1.9210      0.00000

 k-point  16 :       0.5000    0.5000    0.2222
  band No.  band energies     occupation 
      1     -21.0632      1.00000
      2     -19.9783      1.00000
      3     -14.1484      1.00000
      4     -14.1341      1.00000
      5     -14.1278      1.00000
      6     -12.7900      1.00000
      7     -12.7734      1.00000
      8     -12.7669      1.00000
      9      -8.6132      1.00000
     10      -8.3661      1.00000
     11      -8.3301      1.00000
     12      -7.2791      1.00000
     13      -7.1816      1.00000
     14      -6.7960      1.00000
     15      -6.5176      1.00000
     16      -6.2989      1.00000
     17      -3.1830      1.00000
     18      -2.6961      1.00000
     19      -2.4741      1.00000
     20      -2.3934      1.00000
     21      -2.0744      1.00000
     22      -1.8600      1.00000
     23      -1.7450      1.00000
     24      -1.6823      1.00000
     25      -1.4699      1.00000
     26      -1.4023      1.00000
     27      -1.2058      1.00000
     28      -1.1627      1.00000
     29      -0.6809      1.00000
     30      -0.4888      1.00000
     31      -0.3730      1.00000
     32      -0.2727      1.00000
     33      -0.0189      1.00000
     34       0.9637      1.00000
     35       1.6064      0.00000
     36       2.0429      0.00000

 k-point  17 :       0.5000    0.5000    0.1667
  band No.  band energies     occupation 
      1     -21.0634      1.00000
      2     -19.9784      1.00000
      3     -14.1533      1.00000
      4     -14.1349      1.00000
      5     -14.1286      1.00000
      6     -12.7958      1.00000
      7     -12.7743      1.00000
      8     -12.7678      1.00000
      9      -8.6091      1.00000
     10      -8.3258      1.00000
     11      -8.2624      1.00000
     12      -7.2718      1.00000
     13      -7.0784      1.00000
     14      -6.7887      1.00000
     15      -6.5101      1.00000
     16      -6.2907      1.00000
     17      -3.4662      1.00000
     18      -2.7253      1.00000
     19      -2.4339      1.00000
     20      -2.3387      1.00000
     21      -2.1413      1.00000
     22      -2.0687      1.00000
     23      -1.8452      1.00000
     24      -1.7747      1.00000
     25      -1.5035      1.00000
     26      -1.4103      1.00000
     27      -1.1581      1.00000
     28      -1.1007      1.00000
     29      -0.6956      1.00000
     30      -0.5765      1.00000
     31      -0.4830      1.00000
     32      -0.3286      1.00000
     33      -0.0284      1.00000
     34       0.9310      1.00000
     35       1.6862      0.00000
     36       2.1452      0.00000

 k-point  18 :       0.5000    0.5000    0.1111
  band No.  band energies     occupation 
      1     -21.0635      1.00000
      2     -19.9786      1.00000
      3     -14.1573      1.00000
      4     -14.1355      1.00000
      5     -14.1292      1.00000
      6     -12.8005      1.00000
      7     -12.7751      1.00000
      8     -12.7686      1.00000
      9      -8.6058      1.00000
     10      -8.3223      1.00000
     11      -8.1716      1.00000
     12      -7.2659      1.00000
     13      -6.9883      1.00000
     14      -6.7826      1.00000
     15      -6.5039      1.00000
     16      -6.2839      1.00000
     17      -3.6948      1.00000
     18      -2.7493      1.00000
     19      -2.4475      1.00000
     20      -2.2915      1.00000
     21      -2.2753      1.00000
     22      -2.0819      1.00000
     23      -1.9382      1.00000
     24      -1.8676      1.00000
     25      -1.5330      1.00000
     26      -1.4120      1.00000
     27      -1.0987      1.00000
     28      -1.0251      1.00000
     29      -0.7376      1.00000
     30      -0.6463      1.00000
     31      -0.5876      1.00000
     32      -0.3633      1.00000
     33      -0.0343      1.00000
     34       0.9089      1.00000
     35       1.7507      0.00000
     36       2.2228      0.00000

 k-point  19 :       0.5000    0.5000    0.0556
  band No.  band energies     occupation 
      1     -21.0635      1.00000
      2     -19.9786      1.00000
      3     -14.1600      1.00000
      4     -14.1359      1.00000
      5     -14.1296      1.00000
      6     -12.8036      1.00000
      7     -12.7756      1.00000
      8     -12.7691      1.00000
      9      -8.6037      1.00000
     10      -8.3200      1.00000
     11      -8.1088      1.00000
     12      -7.2620      1.00000
     13      -6.9262      1.00000
     14      -6.7787      1.00000
     15      -6.4998      1.00000
     16      -6.2794      1.00000
     17      -3.8436      1.00000
     18      -2.7651      1.00000
     19      -2.5574      1.00000
     20      -2.2663      1.00000
     21      -2.2149      1.00000
     22      -2.0931      1.00000
     23      -2.0165      1.00000
     24      -1.9478      1.00000
     25      -1.5524      1.00000
     26      -1.4123      1.00000
     27      -1.0327      1.00000
     28      -0.9405      1.00000
     29      -0.8091      1.00000
     30      -0.7269      1.00000
     31      -0.6383      1.00000
     32      -0.3820      1.00000
     33      -0.0377      1.00000
     34       0.8962      1.00000
     35       1.7925      0.00000
     36       2.2718      0.00000

 k-point  20 :       0.5000    0.5000    0.0000
  band No.  band energies     occupation 
      1     -21.0635      1.00000
      2     -19.9786      1.00000
      3     -14.1609      1.00000
      4     -14.1360      1.00000
      5     -14.1297      1.00000
      6     -12.8047      1.00000
      7     -12.7757      1.00000
      8     -12.7692      1.00000
      9      -8.6029      1.00000
     10      -8.3191      1.00000
     11      -8.0862      1.00000
     12      -7.2607      1.00000
     13      -6.9039      1.00000
     14      -6.7773      1.00000
     15      -6.4984      1.00000
     16      -6.2778      1.00000
     17      -3.8954      1.00000
     18      -2.7706      1.00000
     19      -2.6045      1.00000
     20      -2.2288      1.00000
     21      -2.1959      1.00000
     22      -2.0806      1.00000
     23      -2.0710      1.00000
     24      -1.9824      1.00000
     25      -1.5591      1.00000
     26      -1.4123      1.00000
     27      -0.9907      1.00000
     28      -0.8884      1.00000
     29      -0.8270      1.00000
     30      -0.8132      1.00000
     31      -0.6461      1.00000
     32      -0.3879      1.00000
     33      -0.0388      1.00000
     34       0.8920      1.00000
     35       1.8069      0.00000
     36       2.2886      0.00000


--------------------------------------------------------------------------------------------------------


 soft charge-density along one line, spin component           1
         0         1         2         3         4         5         6         7         8         9
 total charge-density along one line

 soft charge-density along one line, spin component           2
         0         1         2         3         4         5         6         7         8         9
 total charge-density along one line

 soft charge-density along one line, spin component           3
         0         1         2         3         4         5         6         7         8         9
 total charge-density along one line

 soft charge-density along one line, spin component           4
         0         1         2         3         4         5         6         7         8         9
 total charge-density along one line

 pseudopotential strength for first ion, spin component:           1
 18.123   0.000  -0.056   0.000   0.000   0.000  -0.000   0.000   0.000   0.000  -0.000   0.000   0.000   0.000  -0.000   0.000
 -0.056   0.000   0.004   0.000   0.000   0.000  -0.000   0.000   0.000   0.000  -0.000   0.000   0.000   0.000  -0.000   0.000
  0.000   0.000   0.000   0.000   2.193   0.000  -0.000   0.000   0.000   0.511  -1.058   0.000   0.000   0.000  -0.000  -0.422
 -0.000   0.000  -0.000   0.000  -0.000   0.000   2.193   0.000  -0.000   0.000   0.000   0.000  -1.058   0.000   0.000   0.000
  0.000   0.000   0.000   0.000   0.000  -0.511  -0.000   0.000   2.193   0.000  -0.000   0.422   0.000   0.000  -1.058   0.000
 -0.000   0.000  -0.000   0.000  -1.058   0.000   0.000   0.000  -0.000  -0.422   0.392   0.000  -0.000   0.000   0.000   0.348
  0.000   0.000   0.000   0.000   0.000   0.000  -1.058   0.000   0.000   0.000  -0.000   0.000   0.392   0.000  -0.000   0.000
 -0.000   0.000  -0.000   0.000  -0.000   0.422   0.000   0.000  -1.058   0.000   0.000  -0.348  -0.000   0.000   0.392   0.000
  0.000   0.000   0.000   0.000   0.000   0.000  -0.000   0.000   0.000   0.000  -0.000   0.000   0.000   0.000  -0.000   0.000
 -0.000   0.000  -0.000   0.000  -0.000   0.000   0.000   0.000  -0.000   0.000   0.000   0.000  -0.000   0.000   0.000   0.000
 -0.000   0.000  -0.000   0.000  -0.000   0.000  -0.000   0.000  -0.000   0.000   0.000   0.000   0.000   0.000   0.000   0.000
 -0.000   0.000  -0.000   0.000  -0.000   0.000   0.000   0.000  -0.000   0.000   0.000   0.000  -0.000   0.000   0.000   0.000
  0.000   0.000   0.000   0.000  -0.000   0.000  -0.000   0.000  -0.000   0.000   0.000   0.000   0.000   0.000   0.000   0.000
 pseudopotential strength for first ion, spin component:           2
  0.037  -0.037   0.001  -0.001   0.000  -0.000  -0.000   0.000   0.000  -0.000  -0.000   0.000   0.000  -0.000  -0.000   0.000
  0.001  -0.001  -0.000   0.000   0.000  -0.000  -0.000   0.000   0.000  -0.000  -0.000   0.000   0.000  -0.000  -0.000   0.000
  0.000  -0.000   0.000  -0.000   0.070  -0.070  -0.000  -0.511   0.000  -0.000  -0.055   0.055   0.000   0.422  -0.000   0.000
 -0.000   0.000  -0.000   0.000  -0.000   0.511   0.070  -0.070  -0.511   0.000   0.000  -0.422  -0.055   0.055   0.422  -0.000
  0.000  -0.000   0.000  -0.000   0.000  -0.000   0.511   0.000   0.070  -0.070  -0.000   0.000  -0.422  -0.000  -0.055   0.055
 -0.000   0.000  -0.000   0.000  -0.055   0.055   0.000   0.422  -0.000   0.000   0.046  -0.046  -0.000  -0.348   0.000  -0.000
  0.000  -0.000   0.000  -0.000   0.000  -0.422  -0.055   0.055   0.422  -0.000  -0.000   0.348   0.046  -0.046  -0.348   0.000
 -0.000   0.000  -0.000   0.000  -0.000   0.000  -0.422  -0.000  -0.055   0.055   0.000  -0.000   0.348   0.000   0.046  -0.046
  0.000  -0.000   0.000  -0.000   0.000  -0.000  -0.000   0.000   0.000  -0.000  -0.000   0.000   0.000  -0.000  -0.000   0.000
 -0.000   0.000  -0.000   0.000  -0.000   0.000   0.000  -0.000  -0.000   0.000   0.000  -0.000  -0.000   0.000   0.000  -0.000
 -0.000   0.000  -0.000   0.000  -0.000   0.000  -0.000   0.000  -0.000   0.000   0.000  -0.000   0.000  -0.000   0.000  -0.000
 -0.000   0.000  -0.000   0.000  -0.000   0.000   0.000  -0.000  -0.000   0.000   0.000  -0.000  -0.000   0.000   0.000  -0.000
  0.000  -0.000   0.000  -0.000  -0.000   0.000  -0.000   0.000  -0.000   0.000   0.000  -0.000   0.000  -0.000   0.000  -0.000
 pseudopotential strength for first ion, spin component:           3
  0.037   0.037   0.001   0.001   0.000   0.000  -0.000  -0.000   0.000   0.000  -0.000  -0.000   0.000   0.000  -0.000  -0.000
  0.001   0.001  -0.000  -0.000   0.000   0.000  -0.000  -0.000   0.000   0.000  -0.000  -0.000   0.000   0.000  -0.000  -0.000
  0.000   0.000   0.000   0.000   0.070   0.070  -0.000  -0.511   0.000   0.000  -0.055  -0.055   0.000   0.422  -0.000  -0.000
 -0.000  -0.000  -0.000  -0.000  -0.000   0.511   0.070   0.070   0.511  -0.000   0.000  -0.422  -0.055  -0.055  -0.422   0.000
  0.000   0.000   0.000   0.000   0.000   0.000  -0.511  -0.000   0.070   0.070  -0.000  -0.000   0.422   0.000  -0.055  -0.055
 -0.000  -0.000  -0.000  -0.000  -0.055  -0.055   0.000   0.422  -0.000  -0.000   0.046   0.046  -0.000  -0.348   0.000   0.000
  0.000   0.000   0.000   0.000   0.000  -0.422  -0.055  -0.055  -0.422   0.000  -0.000   0.348   0.046   0.046   0.348  -0.000
 -0.000  -0.000  -0.000  -0.000  -0.000  -0.000   0.422   0.000  -0.055  -0.055   0.000   0.000  -0.348  -0.000   0.046   0.046
  0.000   0.000   0.000   0.000   0.000   0.000  -0.000  -0.000   0.000   0.000  -0.000  -0.000   0.000   0.000  -0.000  -0.000
[...]
  0.000   0.000   0.000   0.000   0.000   0.000   0.000   0.000   0.000   0.000   0.000   0.000   0.000
  0.000   0.000   0.000   0.000   0.000   0.000   0.000   0.000   0.000   0.000   0.000   0.000   0.000
  0.000   0.000   0.000   0.000   0.000   0.000   0.000   0.000   0.000   0.000   0.000   0.000   0.000
  0.000   0.000   0.000   0.000   0.000   0.000   0.000   0.000   0.000   0.000   0.000   0.000   0.000
 total augmentation occupancy for first ion, spin component:           2
  0.230  -0.030   0.000   0.000   0.000   0.000   0.000   0.000   0.000   0.000   0.000   0.000   0.000
 -0.030   0.119   0.000   0.000   0.000   0.000   0.000   0.000   0.000   0.000   0.000   0.000   0.000
  0.000   0.000   0.222   0.000   0.000   0.000   0.000   0.000   0.000   0.000   0.000   0.000   0.000
  0.000   0.000   0.000   0.222   0.000   0.000   0.000   0.000   0.000   0.000   0.000   0.000   0.000
  0.000   0.000   0.000   0.000   0.222   0.000   0.000   0.000   0.000   0.000   0.000   0.000   0.000
  0.000   0.000   0.000   0.000   0.000   0.000   0.000   0.000   0.000   0.000   0.000   0.000   0.000
  0.000   0.000   0.000   0.000   0.000   0.000   0.000   0.000   0.000   0.000   0.000   0.000   0.000
  0.000   0.000   0.000   0.000   0.000   0.000   0.000   0.000   0.000   0.000   0.000   0.000   0.000
  0.000   0.000   0.000   0.000   0.000   0.000   0.000   0.000   0.000   0.000   0.000   0.000   0.000
  0.000   0.000   0.000   0.000   0.000   0.000   0.000   0.000   0.000   0.000   0.000   0.000   0.000
  0.000   0.000   0.000   0.000   0.000   0.000   0.000   0.000   0.000   0.000   0.000   0.000   0.000
  0.000   0.000   0.000   0.000   0.000   0.000   0.000   0.000   0.000   0.000   0.000   0.000   0.000
  0.000   0.000   0.000   0.000   0.000   0.000   0.000   0.000   0.000   0.000   0.000   0.000   0.000
 total augmentation occupancy for first ion, spin component:           3
  0.230  -0.030   0.000   0.000   0.000   0.000   0.000   0.000   0.000   0.000   0.000   0.000   0.000
 -0.030   0.119   0.000   0.000   0.000   0.000   0.000   0.000   0.000   0.000   0.000   0.000   0.000
  0.000   0.000   0.222   0.000   0.000   0.000   0.000   0.000   0.000   0.000   0.000   0.000   0.000
  0.000   0.000   0.000   0.222   0.000   0.000   0.000   0.000   0.000   0.000   0.000   0.000   0.000
  0.000   0.000   0.000   0.000   0.222   0.000   0.000   0.000   0.000   0.000   0.000   0.000   0.000
  0.000   0.000   0.000   0.000   0.000   0.000   0.000   0.000   0.000   0.000   0.000   0.000   0.000
  0.000   0.000   0.000   0.000   0.000   0.000   0.000   0.000   0.000   0.000   0.000   0.000   0.000
  0.000   0.000   0.000   0.000   0.000   0.000   0.000   0.000   0.000   0.000   0.000   0.000   0.000
  0.000   0.000   0.000   0.000   0.000   0.000   0.000   0.000   0.000   0.000   0.000   0.000   0.000
  0.000   0.000   0.000   0.000   0.000   0.000   0.000   0.000   0.000   0.000   0.000   0.000   0.000
  0.000   0.000   0.000   0.000   0.000   0.000   0.000   0.000   0.000   0.000   0.000   0.000   0.000
  0.000   0.000   0.000   0.000   0.000   0.000   0.000   0.000   0.000   0.000   0.000   0.000   0.000
  0.000   0.000   0.000   0.000   0.000   0.000   0.000   0.000   0.000   0.000   0.000   0.000   0.000
 total augmentation occupancy for first ion, spin component:           4
  0.230  -0.030   0.000   0.000   0.000   0.000   0.000   0.000   0.000   0.000   0.000   0.000   0.000
 -0.030   0.119   0.000   0.000   0.000   0.000   0.000   0.000   0.000   0.000   0.000   0.000   0.000
  0.000   0.000   0.222   0.000   0.000   0.000   0.000   0.000   0.000   0.000   0.000   0.000   0.000
  0.000   0.000   0.000   0.222   0.000   0.000   0.000   0.000   0.000   0.000   0.000   0.000   0.000
  0.000   0.000   0.000   0.000   0.222   0.000   0.000   0.000   0.000   0.000   0.000   0.000   0.000
  0.000   0.000   0.000   0.000   0.000   0.000   0.000   0.000   0.000   0.000   0.000   0.000   0.000
  0.000   0.000   0.000   0.000   0.000   0.000   0.000   0.000   0.000   0.000   0.000   0.000   0.000
  0.000   0.000   0.000   0.000   0.000   0.000   0.000   0.000   0.000   0.000   0.000   0.000   0.000
  0.000   0.000   0.000   0.000   0.000   0.000   0.000   0.000   0.000   0.000   0.000   0.000   0.000
  0.000   0.000   0.000   0.000   0.000   0.000   0.000   0.000   0.000   0.000   0.000   0.000   0.000
  0.000   0.000   0.000   0.000   0.000   0.000   0.000   0.000   0.000   0.000   0.000   0.000   0.000
  0.000   0.000   0.000   0.000   0.000   0.000   0.000   0.000   0.000   0.000   0.000   0.000   0.000
  0.000   0.000   0.000   0.000   0.000   0.000   0.000   0.000   0.000   0.000   0.000   0.000   0.000


------------------------ aborting loop because EDIFF is reached ----------------------------------------





 total charge     

# of ion     s       p       d       tot
----------------------------------------
  1        1.942   4.714   0.007   6.663
  2        1.791   0.835   0.197   2.823
  3        1.592   3.341   0.007   4.940
  4        1.592   3.341   0.007   4.940
  5        1.601   3.181   0.010   4.792
------------------------------------------------
tot        8.518  15.412   0.227  24.157



 magnetization (x)

# of ion     s       p       d       tot
----------------------------------------
  1        0.036   0.009  -0.000   0.045
  2        0.039   0.059  -0.003   0.096
  3        0.012   0.058   0.001   0.070
  4        0.014   0.056   0.001   0.071
  5        0.014   0.053   0.001   0.068
------------------------------------------------
tot        0.114   0.236  -0.000   0.349



 magnetization (y)

# of ion     s       p       d       tot
----------------------------------------
  1        0.036   0.009  -0.000   0.045
  2        0.039   0.059  -0.003   0.096
  3        0.014   0.056   0.001   0.071
  4        0.012   0.058   0.001   0.070
  5        0.014   0.053   0.001   0.068
------------------------------------------------
tot        0.114   0.236  -0.000   0.349



 magnetization (z)

# of ion     s       p       d       tot
----------------------------------------
  1        0.036   0.009  -0.000   0.045
  2        0.044   0.076  -0.003   0.117
  3        0.015   0.059   0.002   0.075
  4        0.015   0.059   0.002   0.075
  5        0.011   0.059   0.000   0.070
------------------------------------------------
tot        0.121   0.261   0.000   0.382

    CHARGE:  cpu time    0.16: real time    0.15
    FORLOC:  cpu time    0.00: real time    0.00
    FORNL :  cpu time    0.12: real time    0.12
    STRESS:  cpu time    0.33: real time    0.33
    FORCOR:  cpu time    0.07: real time    0.07
    FORHAR:  cpu time    0.01: real time    0.01

  FORCE on cell =-STRESS in cart. coord.  units (eV):
  Direction    XX          YY          ZZ          XY          YZ          ZX
  --------------------------------------------------------------------------------------
  Alpha Z    70.35345    70.35345    70.35345
  Ewald    -473.49481  -473.49481  -473.49481     0.00000     0.00000     0.00000
  Hartree    96.99805    96.99805    96.99805     0.09586     0.09586     0.09586
  E(xc)    -129.05584  -129.05584  -129.05584     0.02040     0.02040     0.02040
  Local    -163.75961  -163.75961  -163.75961     0.26779     0.26779     0.26779
  n-local   199.93741   199.93768   200.12137    -0.13310    -0.16560    -0.18128
  augment   -46.88173   -46.88173   -46.88173     0.02823     0.02823     0.02823
  Kinetic   453.89360   453.89430   447.12076    -0.65307    -0.66411    -0.66409
  Fock        0.00000     0.00000     0.00000     0.00000     0.00000     0.00000
  -------------------------------------------------------------------------------------
  Total       5.79453     5.79453     5.79453    -0.40814    -0.40814    -0.40814
  in kB      45.95909    45.95909    45.95909    -3.23712    -3.23712    -3.23712
  external pressure =       45.96 kB  Pullay stress =        0.00 kB


 VOLUME and BASIS-vectors are now :
 -----------------------------------------------------------------------------
  energy-cutoff  :      500.00
  volume of cell :      202.00
      direct lattice vectors                 reciprocal lattice vectors
     5.867493105  0.000000000  0.000000000     0.170430537  0.000000000  0.000000000
     0.000000000  5.867493105  0.000000000     0.000000000  0.170430537  0.000000000
     0.000000000  0.000000000  5.867493105     0.000000000  0.000000000  0.170430537

  length of vectors
     5.867493105  5.867493105  5.867493105     0.170430537  0.170430537  0.170430537


 FORCES acting on ions
    electron-ion (+dipol)            ewald-force                    non-local-force                 convergence-correction
 -----------------------------------------------------------------------------------------------
   -.406E-08 -.145E-08 0.258E-08   0.588E-15 0.408E-16 0.162E-14   0.000E+00 0.000E+00 0.000E+00   0.704E-13 0.506E-13 0.155E-13
   -.175E-12 -.615E-13 0.116E-12   -.862E-15 -.171E-14 -.179E-14   0.000E+00 0.000E+00 0.000E+00   -.239E-13 -.202E-13 -.354E-14
   0.180E-13 -.242E-13 0.231E-13   -.613E-15 0.937E-16 -.141E-14   0.000E+00 0.000E+00 0.000E+00   0.290E-13 -.118E-12 0.218E-13
   -.442E-13 0.222E-13 0.338E-13   0.156E-14 -.119E-15 -.143E-14   0.000E+00 0.000E+00 0.000E+00   -.136E-12 0.206E-13 0.509E-13
   -.444E-13 -.138E-13 0.285E-13   -.231E-15 0.116E-14 0.277E-14   0.000E+00 0.000E+00 0.000E+00   -.139E-12 -.139E-12 -.619E-14
 -----------------------------------------------------------------------------------------------
   -.406E-08 -.145E-08 0.258E-08   0.441E-15 -.535E-15 -.248E-15   0.000E+00 0.000E+00 0.000E+00   -.199E-12 -.206E-12 0.785E-13


 POSITION                                       TOTAL-FORCE (eV/Angst)
 -----------------------------------------------------------------------------------
      2.93375      2.93375      2.93375         0.000000      0.000000      0.000000
      0.00000      0.00000      0.00000         0.000000      0.000000      0.000000
      2.93375      0.00000      0.00000         0.000000      0.000000      0.000000
      0.00000      2.93375      0.00000         0.000000      0.000000      0.000000
      0.00000      0.00000      2.93375         0.000000      0.000000      0.000000
 -----------------------------------------------------------------------------------
    total drift:                               -0.000000     -0.000000      0.000000


--------------------------------------------------------------------------------------------------------



  FREE ENERGIE OF THE ION-ELECTRON SYSTEM (eV)
  ---------------------------------------------------
  free  energy   TOTEN  =        -9.38030591 eV

  energy  without entropy=       -9.38026930  energy(sigma->0) =       -9.38028760



--------------------------------------------------------------------------------------------------------


    POTLOK:  cpu time    0.09: real time    0.09


--------------------------------------------------------------------------------------------------------


 writing wavefunctions
     LOOP+:  cpu time   12.94: real time   15.55
    4ORBIT:  cpu time    0.00: real time    0.00

 Spin-Orbit-Coupling matrix elements

 Ion:    1  E_soc:     -0.2875422
 l=   1
     0.0000000    -0.0479173    -0.0479173
    -0.0479173     0.0000000    -0.0479173
    -0.0479173    -0.0479173     0.0000000
 l=   2
     0.0000000     0.0000017     0.0000000     0.0000017    -0.0000081
     0.0000017     0.0000000    -0.0000061     0.0000017    -0.0000020
     0.0000000    -0.0000061     0.0000000    -0.0000061     0.0000000
     0.0000017     0.0000017    -0.0000061     0.0000000    -0.0000020
    -0.0000081    -0.0000020     0.0000000    -0.0000020     0.0000000
 l=   3
     0.0000000     0.0000000     0.0000000     0.0000000     0.0000000     0.0000000     0.0000000
     0.0000000     0.0000000     0.0000000     0.0000000     0.0000000     0.0000000     0.0000000
     0.0000000     0.0000000     0.0000000     0.0000000     0.0000000     0.0000000     0.0000000
     0.0000000     0.0000000     0.0000000     0.0000000     0.0000000     0.0000000     0.0000000
     0.0000000     0.0000000     0.0000000     0.0000000     0.0000000     0.0000000     0.0000000
     0.0000000     0.0000000     0.0000000     0.0000000     0.0000000     0.0000000     0.0000000
     0.0000000     0.0000000     0.0000000     0.0000000     0.0000000     0.0000000     0.0000000

 Ion:    2  E_soc:     -0.5938794
 l=   1
     0.0000000    -0.0968461    -0.0968461
    -0.0968461     0.0000000    -0.0968461
    -0.0968461    -0.0968461     0.0000000
 l=   2
     0.0000000    -0.0001074     0.0000000    -0.0001074    -0.0020264
    -0.0001074     0.0000000    -0.0015198    -0.0001074    -0.0005066
     0.0000000    -0.0015198     0.0000000    -0.0015198     0.0000000
    -0.0001074    -0.0001074    -0.0015198     0.0000000    -0.0005066
    -0.0020264    -0.0005066     0.0000000    -0.0005066     0.0000000
 l=   3
     0.0000000     0.0000000     0.0000000     0.0000000     0.0000000     0.0000000     0.0000000
     0.0000000     0.0000000     0.0000000     0.0000000     0.0000000     0.0000000     0.0000000
     0.0000000     0.0000000     0.0000000     0.0000000     0.0000000     0.0000000     0.0000000
     0.0000000     0.0000000     0.0000000     0.0000000     0.0000000     0.0000000     0.0000000
     0.0000000     0.0000000     0.0000000     0.0000000     0.0000000     0.0000000     0.0000000
     0.0000000     0.0000000     0.0000000     0.0000000     0.0000000     0.0000000     0.0000000
     0.0000000     0.0000000     0.0000000     0.0000000     0.0000000     0.0000000     0.0000000

 Ion:    3  E_soc:     -0.0618762
 l=   1
     0.0000000    -0.0083106    -0.0113462
    -0.0083106     0.0000000    -0.0113461
    -0.0113462    -0.0113461     0.0000000
 l=   2
     0.0000000    -0.0000001     0.0000000    -0.0000111     0.0000381
    -0.0000001     0.0000000    -0.0000001    -0.0000001    -0.0000000
     0.0000000    -0.0000001     0.0000000     0.0000189     0.0000000
    -0.0000111    -0.0000001     0.0000189     0.0000000     0.0000192
     0.0000381    -0.0000000     0.0000000     0.0000192     0.0000000
 l=   3
     0.0000000     0.0000000     0.0000000     0.0000000     0.0000000     0.0000000     0.0000000
     0.0000000     0.0000000     0.0000000     0.0000000     0.0000000     0.0000000     0.0000000
     0.0000000     0.0000000     0.0000000     0.0000000     0.0000000     0.0000000     0.0000000
     0.0000000     0.0000000     0.0000000     0.0000000     0.0000000     0.0000000     0.0000000
     0.0000000     0.0000000     0.0000000     0.0000000     0.0000000     0.0000000     0.0000000
     0.0000000     0.0000000     0.0000000     0.0000000     0.0000000     0.0000000     0.0000000
     0.0000000     0.0000000     0.0000000     0.0000000     0.0000000     0.0000000     0.0000000

 Ion:    4  E_soc:     -0.0618762
 l=   1
     0.0000000    -0.0113462    -0.0113461
    -0.0113462     0.0000000    -0.0083106
    -0.0113461    -0.0083106     0.0000000
 l=   2
     0.0000000    -0.0000111     0.0000000    -0.0000001     0.0000381
    -0.0000111     0.0000000     0.0000189    -0.0000001     0.0000192
     0.0000000     0.0000189     0.0000000    -0.0000001     0.0000000
    -0.0000001    -0.0000001    -0.0000001     0.0000000    -0.0000000
     0.0000381     0.0000192     0.0000000    -0.0000000     0.0000000
 l=   3
     0.0000000     0.0000000     0.0000000     0.0000000     0.0000000     0.0000000     0.0000000
     0.0000000     0.0000000     0.0000000     0.0000000     0.0000000     0.0000000     0.0000000
     0.0000000     0.0000000     0.0000000     0.0000000     0.0000000     0.0000000     0.0000000
     0.0000000     0.0000000     0.0000000     0.0000000     0.0000000     0.0000000     0.0000000
     0.0000000     0.0000000     0.0000000     0.0000000     0.0000000     0.0000000     0.0000000
     0.0000000     0.0000000     0.0000000     0.0000000     0.0000000     0.0000000     0.0000000
     0.0000000     0.0000000     0.0000000     0.0000000     0.0000000     0.0000000     0.0000000

 Ion:    5  E_soc:     -0.0618762
 l=   1
     0.0000000    -0.0113461    -0.0083106
    -0.0113461     0.0000000    -0.0113462
    -0.0083106    -0.0113462     0.0000000
 l=   2
     0.0000000    -0.0000001     0.0000000    -0.0000001    -0.0000001
    -0.0000001     0.0000000     0.0000382    -0.0000111    -0.0000001
     0.0000000     0.0000382     0.0000000     0.0000382     0.0000000
    -0.0000001    -0.0000111     0.0000382     0.0000000    -0.0000001
    -0.0000001    -0.0000001     0.0000000    -0.0000001     0.0000000
 l=   3
     0.0000000     0.0000000     0.0000000     0.0000000     0.0000000     0.0000000     0.0000000
     0.0000000     0.0000000     0.0000000     0.0000000     0.0000000     0.0000000     0.0000000
     0.0000000     0.0000000     0.0000000     0.0000000     0.0000000     0.0000000     0.0000000
     0.0000000     0.0000000     0.0000000     0.0000000     0.0000000     0.0000000     0.0000000
     0.0000000     0.0000000     0.0000000     0.0000000     0.0000000     0.0000000     0.0000000
     0.0000000     0.0000000     0.0000000     0.0000000     0.0000000     0.0000000     0.0000000
     0.0000000     0.0000000     0.0000000     0.0000000     0.0000000     0.0000000     0.0000000



 total charge     

# of ion     s       p       d       tot
----------------------------------------
  1        1.942   4.714   0.007   6.663
  2        1.791   0.835   0.197   2.823
  3        1.592   3.341   0.007   4.940
  4        1.592   3.341   0.007   4.940
  5        1.601   3.181   0.010   4.792
------------------------------------------------
tot        8.518  15.412   0.227  24.157



 magnetization (x)

# of ion     s       p       d       tot
----------------------------------------
  1        0.036   0.009  -0.000   0.045
  2        0.039   0.059  -0.003   0.096
  3        0.012   0.058   0.001   0.070
  4        0.014   0.056   0.001   0.071
  5        0.014   0.053   0.001   0.068
------------------------------------------------
tot        0.114   0.236  -0.000   0.349



 magnetization (y)

# of ion     s       p       d       tot
----------------------------------------
  1        0.036   0.009  -0.000   0.045
  2        0.039   0.059  -0.003   0.096
  3        0.014   0.056   0.001   0.071
  4        0.012   0.058   0.001   0.070
  5        0.014   0.053   0.001   0.068
------------------------------------------------
tot        0.114   0.236  -0.000   0.349



 magnetization (z)

# of ion     s       p       d       tot
----------------------------------------
  1        0.036   0.009  -0.000   0.045
  2        0.044   0.076  -0.003   0.117
  3        0.015   0.059   0.002   0.075
  4        0.015   0.059   0.002   0.075
  5        0.011   0.059   0.000   0.070
------------------------------------------------
tot        0.121   0.261   0.000   0.382


 total amount of memory used by VASP on root node    46135. kBytes
========================================================================

   base      :      30000. kBytes
   nonl-proj :       5536. kBytes
   fftplans  :       1762. kBytes
   grid      :       7077. kBytes
   one-center:         32. kBytes
   wavefun   :       1728. kBytes

  
  
 General timing and accounting informations for this job:
 ========================================================
  
                  Total CPU time used (sec):       19.341
                            User time (sec):       17.485
                          System time (sec):        1.856
                         Elapsed time (sec):       24.847
  
                   Maximum memory used (kb):       51176.
                   Average memory used (kb):           0.
  
                          Minor page faults:        15087
                          Major page faults:            0
                 Voluntary context switches:         2351
